    1C
    1UUSER                                                              
    1UDATE              31.march.2022                                   
    1UTIME              00:28:51                                        
    1UHOST                                                              
    1UPGM               CalculiX                                        
    1UVERSION           Version 2.19                             
    1UCOMPILETIME       Wed Mar 30 06:04:19 EDT 2022                    
    1UDIR                                                               
    1UDBN                                                               
    1UMAT    1STEEL                                                     
    2C                          1353                                     1
 -1         4 0.00000E+00 1.41421E+01-2.12132E+01
 -1         5 0.00000E+00 9.72272E+00-1.67938E+01
 -1         6 2.00000E+01 9.72272E+00-1.67938E+01
 -1         7 2.00000E+01 1.41421E+01-2.12132E+01
 -1         8 0.00000E+00 1.76777E+01-1.76777E+01
 -1         9 0.00000E+00 1.32583E+01-1.32583E+01
 -1        10 2.00000E+01 1.32583E+01-1.32583E+01
 -1        11 2.00000E+01 1.76777E+01-1.76777E+01
 -1        12 4.00000E+01 9.72272E+00-1.67938E+01
 -1        13 4.00000E+01 1.41421E+01-2.12132E+01
 -1        14 4.00000E+01 1.32583E+01-1.32583E+01
 -1        15 4.00000E+01 1.76777E+01-1.76777E+01
 -1        16 6.00000E+01 9.72272E+00-1.67938E+01
 -1        17 6.00000E+01 1.41421E+01-2.12132E+01
 -1        18 6.00000E+01 1.32583E+01-1.32583E+01
 -1        19 6.00000E+01 1.76777E+01-1.76777E+01
 -1        20 8.00000E+01 9.72272E+00-1.67938E+01
 -1        21 8.00000E+01 1.41421E+01-2.12132E+01
 -1        22 8.00000E+01 1.32583E+01-1.32583E+01
 -1        23 8.00000E+01 1.76777E+01-1.76777E+01
 -1        24 1.00000E+02 9.72272E+00-1.67938E+01
 -1        25 1.00000E+02 1.41421E+01-2.12132E+01
 -1        26 1.00000E+02 1.32583E+01-1.32583E+01
 -1        27 1.00000E+02 1.76777E+01-1.76777E+01
 -1        28 1.20000E+02 9.72272E+00-1.67938E+01
 -1        29 1.20000E+02 1.41421E+01-2.12132E+01
 -1        30 1.20000E+02 1.32583E+01-1.32583E+01
 -1        31 1.20000E+02 1.76777E+01-1.76777E+01
 -1        32 1.40000E+02 9.72272E+00-1.67938E+01
 -1        33 1.40000E+02 1.41421E+01-2.12132E+01
 -1        34 1.40000E+02 1.32583E+01-1.32583E+01
 -1        35 1.40000E+02 1.76777E+01-1.76777E+01
 -1        36 1.60000E+02 9.72272E+00-1.67938E+01
 -1        37 1.60000E+02 1.41421E+01-2.12132E+01
 -1        38 1.60000E+02 1.32583E+01-1.32583E+01
 -1        39 1.60000E+02 1.76777E+01-1.76777E+01
 -1        40 1.80000E+02 9.72272E+00-1.67938E+01
 -1        41 1.80000E+02 1.41421E+01-2.12132E+01
 -1        42 1.80000E+02 1.32583E+01-1.32583E+01
 -1        43 1.80000E+02 1.76777E+01-1.76777E+01
 -1        44 2.00000E+02 9.72272E+00-1.67938E+01
 -1        45 2.00000E+02 1.41421E+01-2.12132E+01
 -1        46 2.00000E+02 1.32583E+01-1.32583E+01
 -1        47 2.00000E+02 1.76777E+01-1.76777E+01
 -1        48 0.00000E+00 2.12132E+01-1.41421E+01
 -1        49 0.00000E+00 1.67938E+01-9.72272E+00
 -1        50 2.00000E+01 1.67938E+01-9.72272E+00
 -1        51 2.00000E+01 2.12132E+01-1.41421E+01
 -1        52 4.00000E+01 1.67938E+01-9.72272E+00
 -1        53 4.00000E+01 2.12132E+01-1.41421E+01
 -1        54 6.00000E+01 1.67938E+01-9.72272E+00
 -1        55 6.00000E+01 2.12132E+01-1.41421E+01
 -1        56 8.00000E+01 1.67938E+01-9.72272E+00
 -1        57 8.00000E+01 2.12132E+01-1.41421E+01
 -1        58 1.00000E+02 1.67938E+01-9.72272E+00
 -1        59 1.00000E+02 2.12132E+01-1.41421E+01
 -1        60 1.20000E+02 1.67938E+01-9.72272E+00
 -1        61 1.20000E+02 2.12132E+01-1.41421E+01
 -1        62 1.40000E+02 1.67938E+01-9.72272E+00
 -1        63 1.40000E+02 2.12132E+01-1.41421E+01
 -1        64 1.60000E+02 1.67938E+01-9.72272E+00
 -1        65 1.60000E+02 2.12132E+01-1.41421E+01
 -1        66 1.80000E+02 1.67938E+01-9.72272E+00
 -1        67 1.80000E+02 2.12132E+01-1.41421E+01
 -1        68 2.00000E+02 1.67938E+01-9.72272E+00
 -1        69 2.00000E+02 2.12132E+01-1.41421E+01
 -1        70 0.00000E+00 5.30330E+00-1.23744E+01
 -1        71 2.00000E+01 5.30330E+00-1.23744E+01
 -1        72 0.00000E+00 8.83883E+00-8.83883E+00
 -1        73 2.00000E+01 8.83883E+00-8.83883E+00
 -1        74 4.00000E+01 5.30330E+00-1.23744E+01
 -1        75 4.00000E+01 8.83883E+00-8.83883E+00
 -1        76 6.00000E+01 5.30330E+00-1.23744E+01
 -1        77 6.00000E+01 8.83883E+00-8.83883E+00
 -1        78 8.00000E+01 5.30330E+00-1.23744E+01
 -1        79 8.00000E+01 8.83883E+00-8.83883E+00
 -1        80 1.00000E+02 5.30330E+00-1.23744E+01
 -1        81 1.00000E+02 8.83883E+00-8.83883E+00
 -1        82 1.20000E+02 5.30330E+00-1.23744E+01
 -1        83 1.20000E+02 8.83883E+00-8.83883E+00
 -1        84 1.40000E+02 5.30330E+00-1.23744E+01
 -1        85 1.40000E+02 8.83883E+00-8.83883E+00
 -1        86 1.60000E+02 5.30330E+00-1.23744E+01
 -1        87 1.60000E+02 8.83883E+00-8.83883E+00
 -1        88 1.80000E+02 5.30330E+00-1.23744E+01
 -1        89 1.80000E+02 8.83883E+00-8.83883E+00
 -1        90 2.00000E+02 5.30330E+00-1.23744E+01
 -1        91 2.00000E+02 8.83883E+00-8.83883E+00
 -1        92 0.00000E+00 1.23744E+01-5.30330E+00
 -1        93 2.00000E+01 1.23744E+01-5.30330E+00
 -1        94 4.00000E+01 1.23744E+01-5.30330E+00
 -1        95 6.00000E+01 1.23744E+01-5.30330E+00
 -1        96 8.00000E+01 1.23744E+01-5.30330E+00
 -1        97 1.00000E+02 1.23744E+01-5.30330E+00
 -1        98 1.20000E+02 1.23744E+01-5.30330E+00
 -1        99 1.40000E+02 1.23744E+01-5.30330E+00
 -1       100 1.60000E+02 1.23744E+01-5.30330E+00
 -1       101 1.80000E+02 1.23744E+01-5.30330E+00
 -1       102 2.00000E+02 1.23744E+01-5.30330E+00
 -1       103 0.00000E+00 8.83883E-01-7.95495E+00
 -1       104 2.00000E+01 8.83883E-01-7.95495E+00
 -1       105 0.00000E+00 4.41942E+00-4.41942E+00
 -1       106 2.00000E+01 4.41942E+00-4.41942E+00
 -1       107 4.00000E+01 8.83883E-01-7.95495E+00
 -1       108 4.00000E+01 4.41942E+00-4.41942E+00
 -1       109 6.00000E+01 8.83883E-01-7.95495E+00
 -1       110 6.00000E+01 4.41942E+00-4.41942E+00
 -1       111 8.00000E+01 8.83883E-01-7.95495E+00
 -1       112 8.00000E+01 4.41942E+00-4.41942E+00
 -1       113 1.00000E+02 8.83883E-01-7.95495E+00
 -1       114 1.00000E+02 4.41942E+00-4.41942E+00
 -1       115 1.20000E+02 8.83883E-01-7.95495E+00
 -1       116 1.20000E+02 4.41942E+00-4.41942E+00
 -1       117 1.40000E+02 8.83883E-01-7.95495E+00
 -1       118 1.40000E+02 4.41942E+00-4.41942E+00
 -1       119 1.60000E+02 8.83883E-01-7.95495E+00
 -1       120 1.60000E+02 4.41942E+00-4.41942E+00
 -1       121 1.80000E+02 8.83883E-01-7.95495E+00
 -1       122 1.80000E+02 4.41942E+00-4.41942E+00
 -1       123 2.00000E+02 8.83883E-01-7.95495E+00
 -1       124 2.00000E+02 4.41942E+00-4.41942E+00
 -1       125 0.00000E+00 7.95495E+00-8.83883E-01
 -1       126 2.00000E+01 7.95495E+00-8.83883E-01
 -1       127 4.00000E+01 7.95495E+00-8.83883E-01
 -1       128 6.00000E+01 7.95495E+00-8.83883E-01
 -1       129 8.00000E+01 7.95495E+00-8.83883E-01
 -1       130 1.00000E+02 7.95495E+00-8.83883E-01
 -1       131 1.20000E+02 7.95495E+00-8.83883E-01
 -1       132 1.40000E+02 7.95495E+00-8.83883E-01
 -1       133 1.60000E+02 7.95495E+00-8.83883E-01
 -1       134 1.80000E+02 7.95495E+00-8.83883E-01
 -1       135 2.00000E+02 7.95495E+00-8.83883E-01
 -1       136 0.00000E+00-3.53553E+00-3.53553E+00
 -1       137 2.00000E+01-3.53553E+00-3.53553E+00
 -1       138 0.00000E+00 0.00000E+00 0.00000E+00
 -1       139 2.00000E+01-1.38778E-16 3.05311E-16
 -1       140 4.00000E+01-3.53553E+00-3.53553E+00
 -1       141 4.00000E+01-5.55112E-17-4.99600E-16
 -1       142 6.00000E+01-3.53553E+00-3.53553E+00
 -1       143 6.00000E+01 5.55112E-16 1.11022E-16
 -1       144 8.00000E+01-3.53553E+00-3.53553E+00
 -1       145 8.00000E+01-3.33067E-16-3.33067E-16
 -1       146 1.00000E+02-3.53553E+00-3.53553E+00
 -1       147 1.00000E+02-4.44089E-16 0.00000E+00
 -1       148 1.20000E+02-3.53553E+00-3.53553E+00
 -1       149 1.20000E+02 6.66134E-16-2.22045E-16
 -1       150 1.40000E+02-3.53553E+00-3.53553E+00
 -1       151 1.40000E+02 4.44089E-16-4.44089E-16
 -1       152 1.60000E+02-3.53553E+00-3.53553E+00
 -1       153 1.60000E+02 0.00000E+00 0.00000E+00
 -1       154 1.80000E+02-3.53553E+00-3.53553E+00
 -1       155 1.80000E+02 0.00000E+00 0.00000E+00
 -1       156 2.00000E+02-3.53553E+00-3.53553E+00
 -1       157 2.00000E+02 0.00000E+00 0.00000E+00
 -1       158 0.00000E+00 3.53553E+00 3.53553E+00
 -1       159 2.00000E+01 3.53553E+00 3.53553E+00
 -1       160 4.00000E+01 3.53553E+00 3.53553E+00
 -1       161 6.00000E+01 3.53553E+00 3.53553E+00
 -1       162 8.00000E+01 3.53553E+00 3.53553E+00
 -1       163 1.00000E+02 3.53553E+00 3.53553E+00
 -1       164 1.20000E+02 3.53553E+00 3.53553E+00
 -1       165 1.40000E+02 3.53553E+00 3.53553E+00
 -1       166 1.60000E+02 3.53553E+00 3.53553E+00
 -1       167 1.80000E+02 3.53553E+00 3.53553E+00
 -1       168 2.00000E+02 3.53553E+00 3.53553E+00
 -1       169 0.00000E+00-7.95495E+00 8.83883E-01
 -1       170 2.00000E+01-7.95495E+00 8.83883E-01
 -1       171 0.00000E+00-4.41942E+00 4.41942E+00
 -1       172 2.00000E+01-4.41942E+00 4.41942E+00
 -1       173 4.00000E+01-7.95495E+00 8.83883E-01
 -1       174 4.00000E+01-4.41942E+00 4.41942E+00
 -1       175 6.00000E+01-7.95495E+00 8.83883E-01
 -1       176 6.00000E+01-4.41942E+00 4.41942E+00
 -1       177 8.00000E+01-7.95495E+00 8.83883E-01
 -1       178 8.00000E+01-4.41942E+00 4.41942E+00
 -1       179 1.00000E+02-7.95495E+00 8.83883E-01
 -1       180 1.00000E+02-4.41942E+00 4.41942E+00
 -1       181 1.20000E+02-7.95495E+00 8.83883E-01
 -1       182 1.20000E+02-4.41942E+00 4.41942E+00
 -1       183 1.40000E+02-7.95495E+00 8.83883E-01
 -1       184 1.40000E+02-4.41942E+00 4.41942E+00
 -1       185 1.60000E+02-7.95495E+00 8.83883E-01
 -1       186 1.60000E+02-4.41942E+00 4.41942E+00
 -1       187 1.80000E+02-7.95495E+00 8.83883E-01
 -1       188 1.80000E+02-4.41942E+00 4.41942E+00
 -1       189 2.00000E+02-7.95495E+00 8.83883E-01
 -1       190 2.00000E+02-4.41942E+00 4.41942E+00
 -1       191 0.00000E+00-8.83883E-01 7.95495E+00
 -1       192 2.00000E+01-8.83883E-01 7.95495E+00
 -1       193 4.00000E+01-8.83883E-01 7.95495E+00
 -1       194 6.00000E+01-8.83883E-01 7.95495E+00
 -1       195 8.00000E+01-8.83883E-01 7.95495E+00
 -1       196 1.00000E+02-8.83883E-01 7.95495E+00
 -1       197 1.20000E+02-8.83883E-01 7.95495E+00
 -1       198 1.40000E+02-8.83883E-01 7.95495E+00
 -1       199 1.60000E+02-8.83883E-01 7.95495E+00
 -1       200 1.80000E+02-8.83883E-01 7.95495E+00
 -1       201 2.00000E+02-8.83883E-01 7.95495E+00
 -1       202 0.00000E+00-1.23744E+01 5.30330E+00
 -1       203 2.00000E+01-1.23744E+01 5.30330E+00
 -1       204 0.00000E+00-8.83883E+00 8.83883E+00
 -1       205 2.00000E+01-8.83883E+00 8.83883E+00
 -1       206 4.00000E+01-1.23744E+01 5.30330E+00
 -1       207 4.00000E+01-8.83883E+00 8.83883E+00
 -1       208 6.00000E+01-1.23744E+01 5.30330E+00
 -1       209 6.00000E+01-8.83883E+00 8.83883E+00
 -1       210 8.00000E+01-1.23744E+01 5.30330E+00
 -1       211 8.00000E+01-8.83883E+00 8.83883E+00
 -1       212 1.00000E+02-1.23744E+01 5.30330E+00
 -1       213 1.00000E+02-8.83883E+00 8.83883E+00
 -1       214 1.20000E+02-1.23744E+01 5.30330E+00
 -1       215 1.20000E+02-8.83883E+00 8.83883E+00
 -1       216 1.40000E+02-1.23744E+01 5.30330E+00
 -1       217 1.40000E+02-8.83883E+00 8.83883E+00
 -1       218 1.60000E+02-1.23744E+01 5.30330E+00
 -1       219 1.60000E+02-8.83883E+00 8.83883E+00
 -1       220 1.80000E+02-1.23744E+01 5.30330E+00
 -1       221 1.80000E+02-8.83883E+00 8.83883E+00
 -1       222 2.00000E+02-1.23744E+01 5.30330E+00
 -1       223 2.00000E+02-8.83883E+00 8.83883E+00
 -1       224 0.00000E+00-5.30330E+00 1.23744E+01
 -1       225 2.00000E+01-5.30330E+00 1.23744E+01
 -1       226 4.00000E+01-5.30330E+00 1.23744E+01
 -1       227 6.00000E+01-5.30330E+00 1.23744E+01
 -1       228 8.00000E+01-5.30330E+00 1.23744E+01
 -1       229 1.00000E+02-5.30330E+00 1.23744E+01
 -1       230 1.20000E+02-5.30330E+00 1.23744E+01
 -1       231 1.40000E+02-5.30330E+00 1.23744E+01
 -1       232 1.60000E+02-5.30330E+00 1.23744E+01
 -1       233 1.80000E+02-5.30330E+00 1.23744E+01
 -1       234 2.00000E+02-5.30330E+00 1.23744E+01
 -1       235 0.00000E+00-1.67938E+01 9.72272E+00
 -1       236 2.00000E+01-1.67938E+01 9.72272E+00
 -1       237 0.00000E+00-1.32583E+01 1.32583E+01
 -1       238 2.00000E+01-1.32583E+01 1.32583E+01
 -1       239 4.00000E+01-1.67938E+01 9.72272E+00
 -1       240 4.00000E+01-1.32583E+01 1.32583E+01
 -1       241 6.00000E+01-1.67938E+01 9.72272E+00
 -1       242 6.00000E+01-1.32583E+01 1.32583E+01
 -1       243 8.00000E+01-1.67938E+01 9.72272E+00
 -1       244 8.00000E+01-1.32583E+01 1.32583E+01
 -1       245 1.00000E+02-1.67938E+01 9.72272E+00
 -1       246 1.00000E+02-1.32583E+01 1.32583E+01
 -1       247 1.20000E+02-1.67938E+01 9.72272E+00
 -1       248 1.20000E+02-1.32583E+01 1.32583E+01
 -1       249 1.40000E+02-1.67938E+01 9.72272E+00
 -1       250 1.40000E+02-1.32583E+01 1.32583E+01
 -1       251 1.60000E+02-1.67938E+01 9.72272E+00
 -1       252 1.60000E+02-1.32583E+01 1.32583E+01
 -1       253 1.80000E+02-1.67938E+01 9.72272E+00
 -1       254 1.80000E+02-1.32583E+01 1.32583E+01
 -1       255 2.00000E+02-1.67938E+01 9.72272E+00
 -1       256 2.00000E+02-1.32583E+01 1.32583E+01
 -1       257 0.00000E+00-9.72272E+00 1.67938E+01
 -1       258 2.00000E+01-9.72272E+00 1.67938E+01
 -1       259 4.00000E+01-9.72272E+00 1.67938E+01
 -1       260 6.00000E+01-9.72272E+00 1.67938E+01
 -1       261 8.00000E+01-9.72272E+00 1.67938E+01
 -1       262 1.00000E+02-9.72272E+00 1.67938E+01
 -1       263 1.20000E+02-9.72272E+00 1.67938E+01
 -1       264 1.40000E+02-9.72272E+00 1.67938E+01
 -1       265 1.60000E+02-9.72272E+00 1.67938E+01
 -1       266 1.80000E+02-9.72272E+00 1.67938E+01
 -1       267 2.00000E+02-9.72272E+00 1.67938E+01
 -1       268 0.00000E+00-2.12132E+01 1.41421E+01
 -1       269 2.00000E+01-2.12132E+01 1.41421E+01
 -1       270 0.00000E+00-1.76777E+01 1.76777E+01
 -1       271 2.00000E+01-1.76777E+01 1.76777E+01
 -1       272 4.00000E+01-2.12132E+01 1.41421E+01
 -1       273 4.00000E+01-1.76777E+01 1.76777E+01
 -1       274 6.00000E+01-2.12132E+01 1.41421E+01
 -1       275 6.00000E+01-1.76777E+01 1.76777E+01
 -1       276 8.00000E+01-2.12132E+01 1.41421E+01
 -1       277 8.00000E+01-1.76777E+01 1.76777E+01
 -1       278 1.00000E+02-2.12132E+01 1.41421E+01
 -1       279 1.00000E+02-1.76777E+01 1.76777E+01
 -1       280 1.20000E+02-2.12132E+01 1.41421E+01
 -1       281 1.20000E+02-1.76777E+01 1.76777E+01
 -1       282 1.40000E+02-2.12132E+01 1.41421E+01
 -1       283 1.40000E+02-1.76777E+01 1.76777E+01
 -1       284 1.60000E+02-2.12132E+01 1.41421E+01
 -1       285 1.60000E+02-1.76777E+01 1.76777E+01
 -1       286 1.80000E+02-2.12132E+01 1.41421E+01
 -1       287 1.80000E+02-1.76777E+01 1.76777E+01
 -1       288 2.00000E+02-2.12132E+01 1.41421E+01
 -1       289 2.00000E+02-1.76777E+01 1.76777E+01
 -1       290 0.00000E+00-1.41421E+01 2.12132E+01
 -1       291 2.00000E+01-1.41421E+01 2.12132E+01
 -1       292 4.00000E+01-1.41421E+01 2.12132E+01
 -1       293 6.00000E+01-1.41421E+01 2.12132E+01
 -1       294 8.00000E+01-1.41421E+01 2.12132E+01
 -1       295 1.00000E+02-1.41421E+01 2.12132E+01
 -1       296 1.20000E+02-1.41421E+01 2.12132E+01
 -1       297 1.40000E+02-1.41421E+01 2.12132E+01
 -1       298 1.60000E+02-1.41421E+01 2.12132E+01
 -1       299 1.80000E+02-1.41421E+01 2.12132E+01
 -1       300 2.00000E+02-1.41421E+01 2.12132E+01
 -1       301 0.00000E+00-4.80000E+01 1.70000E+01
 -1       302 0.00000E+00-4.80000E+01 1.85000E+01
 -1       303 2.00000E+01-4.80000E+01 1.85000E+01
 -1       304 2.00000E+01-4.80000E+01 1.70000E+01
 -1       305 0.00000E+00-4.65000E+01 1.70000E+01
 -1       306 0.00000E+00-4.65000E+01 1.85000E+01
 -1       307 2.00000E+01-4.65000E+01 1.85000E+01
 -1       308 2.00000E+01-4.65000E+01 1.70000E+01
 -1       309 4.00000E+01-4.80000E+01 1.85000E+01
 -1       310 4.00000E+01-4.80000E+01 1.70000E+01
 -1       311 4.00000E+01-4.65000E+01 1.85000E+01
 -1       312 4.00000E+01-4.65000E+01 1.70000E+01
 -1       313 6.00000E+01-4.80000E+01 1.85000E+01
 -1       314 6.00000E+01-4.80000E+01 1.70000E+01
 -1       315 6.00000E+01-4.65000E+01 1.85000E+01
 -1       316 6.00000E+01-4.65000E+01 1.70000E+01
 -1       317 8.00000E+01-4.80000E+01 1.85000E+01
 -1       318 8.00000E+01-4.80000E+01 1.70000E+01
 -1       319 8.00000E+01-4.65000E+01 1.85000E+01
 -1       320 8.00000E+01-4.65000E+01 1.70000E+01
 -1       321 1.00000E+02-4.80000E+01 1.85000E+01
 -1       322 1.00000E+02-4.80000E+01 1.70000E+01
 -1       323 1.00000E+02-4.65000E+01 1.85000E+01
 -1       324 1.00000E+02-4.65000E+01 1.70000E+01
 -1       325 1.20000E+02-4.80000E+01 1.85000E+01
 -1       326 1.20000E+02-4.80000E+01 1.70000E+01
 -1       327 1.20000E+02-4.65000E+01 1.85000E+01
 -1       328 1.20000E+02-4.65000E+01 1.70000E+01
 -1       329 1.40000E+02-4.80000E+01 1.85000E+01
 -1       330 1.40000E+02-4.80000E+01 1.70000E+01
 -1       331 1.40000E+02-4.65000E+01 1.85000E+01
 -1       332 1.40000E+02-4.65000E+01 1.70000E+01
 -1       333 1.60000E+02-4.80000E+01 1.85000E+01
 -1       334 1.60000E+02-4.80000E+01 1.70000E+01
 -1       335 1.60000E+02-4.65000E+01 1.85000E+01
 -1       336 1.60000E+02-4.65000E+01 1.70000E+01
 -1       337 1.80000E+02-4.80000E+01 1.85000E+01
 -1       338 1.80000E+02-4.80000E+01 1.70000E+01
 -1       339 1.80000E+02-4.65000E+01 1.85000E+01
 -1       340 1.80000E+02-4.65000E+01 1.70000E+01
 -1       341 2.00000E+02-4.80000E+01 1.85000E+01
 -1       342 2.00000E+02-4.80000E+01 1.70000E+01
 -1       343 2.00000E+02-4.65000E+01 1.85000E+01
 -1       344 2.00000E+02-4.65000E+01 1.70000E+01
 -1       345 0.00000E+00-4.50000E+01 1.70000E+01
 -1       346 0.00000E+00-4.50000E+01 1.85000E+01
 -1       347 2.00000E+01-4.50000E+01 1.85000E+01
 -1       348 2.00000E+01-4.50000E+01 1.70000E+01
 -1       349 4.00000E+01-4.50000E+01 1.85000E+01
 -1       350 4.00000E+01-4.50000E+01 1.70000E+01
 -1       351 6.00000E+01-4.50000E+01 1.85000E+01
 -1       352 6.00000E+01-4.50000E+01 1.70000E+01
 -1       353 8.00000E+01-4.50000E+01 1.85000E+01
 -1       354 8.00000E+01-4.50000E+01 1.70000E+01
 -1       355 1.00000E+02-4.50000E+01 1.85000E+01
 -1       356 1.00000E+02-4.50000E+01 1.70000E+01
 -1       357 1.20000E+02-4.50000E+01 1.85000E+01
 -1       358 1.20000E+02-4.50000E+01 1.70000E+01
 -1       359 1.40000E+02-4.50000E+01 1.85000E+01
 -1       360 1.40000E+02-4.50000E+01 1.70000E+01
 -1       361 1.60000E+02-4.50000E+01 1.85000E+01
 -1       362 1.60000E+02-4.50000E+01 1.70000E+01
 -1       363 1.80000E+02-4.50000E+01 1.85000E+01
 -1       364 1.80000E+02-4.50000E+01 1.70000E+01
 -1       365 2.00000E+02-4.50000E+01 1.85000E+01
 -1       366 2.00000E+02-4.50000E+01 1.70000E+01
 -1       367 0.00000E+00-4.80000E+01 2.00000E+01
 -1       368 2.00000E+01-4.80000E+01 2.00000E+01
 -1       369 0.00000E+00-4.65000E+01 2.00000E+01
 -1       370 2.00000E+01-4.65000E+01 2.00000E+01
 -1       371 4.00000E+01-4.80000E+01 2.00000E+01
 -1       372 4.00000E+01-4.65000E+01 2.00000E+01
 -1       373 6.00000E+01-4.80000E+01 2.00000E+01
 -1       374 6.00000E+01-4.65000E+01 2.00000E+01
 -1       375 8.00000E+01-4.80000E+01 2.00000E+01
 -1       376 8.00000E+01-4.65000E+01 2.00000E+01
 -1       377 1.00000E+02-4.80000E+01 2.00000E+01
 -1       378 1.00000E+02-4.65000E+01 2.00000E+01
 -1       379 1.20000E+02-4.80000E+01 2.00000E+01
 -1       380 1.20000E+02-4.65000E+01 2.00000E+01
 -1       381 1.40000E+02-4.80000E+01 2.00000E+01
 -1       382 1.40000E+02-4.65000E+01 2.00000E+01
 -1       383 1.60000E+02-4.80000E+01 2.00000E+01
 -1       384 1.60000E+02-4.65000E+01 2.00000E+01
 -1       385 1.80000E+02-4.80000E+01 2.00000E+01
 -1       386 1.80000E+02-4.65000E+01 2.00000E+01
 -1       387 2.00000E+02-4.80000E+01 2.00000E+01
 -1       388 2.00000E+02-4.65000E+01 2.00000E+01
 -1       389 0.00000E+00-4.50000E+01 2.00000E+01
 -1       390 2.00000E+01-4.50000E+01 2.00000E+01
 -1       391 4.00000E+01-4.50000E+01 2.00000E+01
 -1       392 6.00000E+01-4.50000E+01 2.00000E+01
 -1       393 8.00000E+01-4.50000E+01 2.00000E+01
 -1       394 1.00000E+02-4.50000E+01 2.00000E+01
 -1       395 1.20000E+02-4.50000E+01 2.00000E+01
 -1       396 1.40000E+02-4.50000E+01 2.00000E+01
 -1       397 1.60000E+02-4.50000E+01 2.00000E+01
 -1       398 1.80000E+02-4.50000E+01 2.00000E+01
 -1       399 2.00000E+02-4.50000E+01 2.00000E+01
 -1       400 0.00000E+00-4.80000E+01-1.70000E+01
 -1       401 0.00000E+00-4.80000E+01-1.13333E+01
 -1       402 2.00000E+01-4.80000E+01-1.13333E+01
 -1       403 2.00000E+01-4.80000E+01-1.70000E+01
 -1       404 0.00000E+00-4.65000E+01-1.70000E+01
 -1       405 0.00000E+00-4.65000E+01-1.13333E+01
 -1       406 2.00000E+01-4.65000E+01-1.13333E+01
 -1       407 2.00000E+01-4.65000E+01-1.70000E+01
 -1       408 4.00000E+01-4.80000E+01-1.13333E+01
 -1       409 4.00000E+01-4.80000E+01-1.70000E+01
 -1       410 4.00000E+01-4.65000E+01-1.13333E+01
 -1       411 4.00000E+01-4.65000E+01-1.70000E+01
 -1       412 6.00000E+01-4.80000E+01-1.13333E+01
 -1       413 6.00000E+01-4.80000E+01-1.70000E+01
 -1       414 6.00000E+01-4.65000E+01-1.13333E+01
 -1       415 6.00000E+01-4.65000E+01-1.70000E+01
 -1       416 8.00000E+01-4.80000E+01-1.13333E+01
 -1       417 8.00000E+01-4.80000E+01-1.70000E+01
 -1       418 8.00000E+01-4.65000E+01-1.13333E+01
 -1       419 8.00000E+01-4.65000E+01-1.70000E+01
 -1       420 1.00000E+02-4.80000E+01-1.13333E+01
 -1       421 1.00000E+02-4.80000E+01-1.70000E+01
 -1       422 1.00000E+02-4.65000E+01-1.13333E+01
 -1       423 1.00000E+02-4.65000E+01-1.70000E+01
 -1       424 1.20000E+02-4.80000E+01-1.13333E+01
 -1       425 1.20000E+02-4.80000E+01-1.70000E+01
 -1       426 1.20000E+02-4.65000E+01-1.13333E+01
 -1       427 1.20000E+02-4.65000E+01-1.70000E+01
 -1       428 1.40000E+02-4.80000E+01-1.13333E+01
 -1       429 1.40000E+02-4.80000E+01-1.70000E+01
 -1       430 1.40000E+02-4.65000E+01-1.13333E+01
 -1       431 1.40000E+02-4.65000E+01-1.70000E+01
 -1       432 1.60000E+02-4.80000E+01-1.13333E+01
 -1       433 1.60000E+02-4.80000E+01-1.70000E+01
 -1       434 1.60000E+02-4.65000E+01-1.13333E+01
 -1       435 1.60000E+02-4.65000E+01-1.70000E+01
 -1       436 1.80000E+02-4.80000E+01-1.13333E+01
 -1       437 1.80000E+02-4.80000E+01-1.70000E+01
 -1       438 1.80000E+02-4.65000E+01-1.13333E+01
 -1       439 1.80000E+02-4.65000E+01-1.70000E+01
 -1       440 2.00000E+02-4.80000E+01-1.13333E+01
 -1       441 2.00000E+02-4.80000E+01-1.70000E+01
 -1       442 2.00000E+02-4.65000E+01-1.13333E+01
 -1       443 2.00000E+02-4.65000E+01-1.70000E+01
 -1       444 0.00000E+00-4.50000E+01-1.70000E+01
 -1       445 0.00000E+00-4.50000E+01-1.13333E+01
 -1       446 2.00000E+01-4.50000E+01-1.13333E+01
 -1       447 2.00000E+01-4.50000E+01-1.70000E+01
 -1       448 4.00000E+01-4.50000E+01-1.13333E+01
 -1       449 4.00000E+01-4.50000E+01-1.70000E+01
 -1       450 6.00000E+01-4.50000E+01-1.13333E+01
 -1       451 6.00000E+01-4.50000E+01-1.70000E+01
 -1       452 8.00000E+01-4.50000E+01-1.13333E+01
 -1       453 8.00000E+01-4.50000E+01-1.70000E+01
 -1       454 1.00000E+02-4.50000E+01-1.13333E+01
 -1       455 1.00000E+02-4.50000E+01-1.70000E+01
 -1       456 1.20000E+02-4.50000E+01-1.13333E+01
 -1       457 1.20000E+02-4.50000E+01-1.70000E+01
 -1       458 1.40000E+02-4.50000E+01-1.13333E+01
 -1       459 1.40000E+02-4.50000E+01-1.70000E+01
 -1       460 1.60000E+02-4.50000E+01-1.13333E+01
 -1       461 1.60000E+02-4.50000E+01-1.70000E+01
 -1       462 1.80000E+02-4.50000E+01-1.13333E+01
 -1       463 1.80000E+02-4.50000E+01-1.70000E+01
 -1       464 2.00000E+02-4.50000E+01-1.13333E+01
 -1       465 2.00000E+02-4.50000E+01-1.70000E+01
 -1       466 0.00000E+00-4.80000E+01-5.66667E+00
 -1       467 2.00000E+01-4.80000E+01-5.66667E+00
 -1       468 0.00000E+00-4.65000E+01-5.66667E+00
 -1       469 2.00000E+01-4.65000E+01-5.66667E+00
 -1       470 4.00000E+01-4.80000E+01-5.66667E+00
 -1       471 4.00000E+01-4.65000E+01-5.66667E+00
 -1       472 6.00000E+01-4.80000E+01-5.66667E+00
 -1       473 6.00000E+01-4.65000E+01-5.66667E+00
 -1       474 8.00000E+01-4.80000E+01-5.66667E+00
 -1       475 8.00000E+01-4.65000E+01-5.66667E+00
 -1       476 1.00000E+02-4.80000E+01-5.66667E+00
 -1       477 1.00000E+02-4.65000E+01-5.66667E+00
 -1       478 1.20000E+02-4.80000E+01-5.66667E+00
 -1       479 1.20000E+02-4.65000E+01-5.66667E+00
 -1       480 1.40000E+02-4.80000E+01-5.66667E+00
 -1       481 1.40000E+02-4.65000E+01-5.66667E+00
 -1       482 1.60000E+02-4.80000E+01-5.66667E+00
 -1       483 1.60000E+02-4.65000E+01-5.66667E+00
 -1       484 1.80000E+02-4.80000E+01-5.66667E+00
 -1       485 1.80000E+02-4.65000E+01-5.66667E+00
 -1       486 2.00000E+02-4.80000E+01-5.66667E+00
 -1       487 2.00000E+02-4.65000E+01-5.66667E+00
 -1       488 0.00000E+00-4.50000E+01-5.66667E+00
 -1       489 2.00000E+01-4.50000E+01-5.66667E+00
 -1       490 4.00000E+01-4.50000E+01-5.66667E+00
 -1       491 6.00000E+01-4.50000E+01-5.66667E+00
 -1       492 8.00000E+01-4.50000E+01-5.66667E+00
 -1       493 1.00000E+02-4.50000E+01-5.66667E+00
 -1       494 1.20000E+02-4.50000E+01-5.66667E+00
 -1       495 1.40000E+02-4.50000E+01-5.66667E+00
 -1       496 1.60000E+02-4.50000E+01-5.66667E+00
 -1       497 1.80000E+02-4.50000E+01-5.66667E+00
 -1       498 2.00000E+02-4.50000E+01-5.66667E+00
 -1       499 0.00000E+00-4.80000E+01 0.00000E+00
 -1       500 2.00000E+01-4.80000E+01 0.00000E+00
 -1       501 0.00000E+00-4.65000E+01 0.00000E+00
 -1       502 2.00000E+01-4.65000E+01 0.00000E+00
 -1       503 4.00000E+01-4.80000E+01 0.00000E+00
 -1       504 4.00000E+01-4.65000E+01 0.00000E+00
 -1       505 6.00000E+01-4.80000E+01 0.00000E+00
 -1       506 6.00000E+01-4.65000E+01 0.00000E+00
 -1       507 8.00000E+01-4.80000E+01 0.00000E+00
 -1       508 8.00000E+01-4.65000E+01 0.00000E+00
 -1       509 1.00000E+02-4.80000E+01 0.00000E+00
 -1       510 1.00000E+02-4.65000E+01 0.00000E+00
 -1       511 1.20000E+02-4.80000E+01 0.00000E+00
 -1       512 1.20000E+02-4.65000E+01 0.00000E+00
 -1       513 1.40000E+02-4.80000E+01 0.00000E+00
 -1       514 1.40000E+02-4.65000E+01 0.00000E+00
 -1       515 1.60000E+02-4.80000E+01 0.00000E+00
 -1       516 1.60000E+02-4.65000E+01 0.00000E+00
 -1       517 1.80000E+02-4.80000E+01 0.00000E+00
 -1       518 1.80000E+02-4.65000E+01 0.00000E+00
 -1       519 2.00000E+02-4.80000E+01 0.00000E+00
 -1       520 2.00000E+02-4.65000E+01 0.00000E+00
 -1       521 0.00000E+00-4.50000E+01 0.00000E+00
 -1       522 2.00000E+01-4.50000E+01 0.00000E+00
 -1       523 4.00000E+01-4.50000E+01 0.00000E+00
 -1       524 6.00000E+01-4.50000E+01 0.00000E+00
 -1       525 8.00000E+01-4.50000E+01 0.00000E+00
 -1       526 1.00000E+02-4.50000E+01 0.00000E+00
 -1       527 1.20000E+02-4.50000E+01 0.00000E+00
 -1       528 1.40000E+02-4.50000E+01 0.00000E+00
 -1       529 1.60000E+02-4.50000E+01 0.00000E+00
 -1       530 1.80000E+02-4.50000E+01 0.00000E+00
 -1       531 2.00000E+02-4.50000E+01 0.00000E+00
 -1       532 0.00000E+00-4.80000E+01 5.66667E+00
 -1       533 2.00000E+01-4.80000E+01 5.66667E+00
 -1       534 0.00000E+00-4.65000E+01 5.66667E+00
 -1       535 2.00000E+01-4.65000E+01 5.66667E+00
 -1       536 4.00000E+01-4.80000E+01 5.66667E+00
 -1       537 4.00000E+01-4.65000E+01 5.66667E+00
 -1       538 6.00000E+01-4.80000E+01 5.66667E+00
 -1       539 6.00000E+01-4.65000E+01 5.66667E+00
 -1       540 8.00000E+01-4.80000E+01 5.66667E+00
 -1       541 8.00000E+01-4.65000E+01 5.66667E+00
 -1       542 1.00000E+02-4.80000E+01 5.66667E+00
 -1       543 1.00000E+02-4.65000E+01 5.66667E+00
 -1       544 1.20000E+02-4.80000E+01 5.66667E+00
 -1       545 1.20000E+02-4.65000E+01 5.66667E+00
 -1       546 1.40000E+02-4.80000E+01 5.66667E+00
 -1       547 1.40000E+02-4.65000E+01 5.66667E+00
 -1       548 1.60000E+02-4.80000E+01 5.66667E+00
 -1       549 1.60000E+02-4.65000E+01 5.66667E+00
 -1       550 1.80000E+02-4.80000E+01 5.66667E+00
 -1       551 1.80000E+02-4.65000E+01 5.66667E+00
 -1       552 2.00000E+02-4.80000E+01 5.66667E+00
 -1       553 2.00000E+02-4.65000E+01 5.66667E+00
 -1       554 0.00000E+00-4.50000E+01 5.66667E+00
 -1       555 2.00000E+01-4.50000E+01 5.66667E+00
 -1       556 4.00000E+01-4.50000E+01 5.66667E+00
 -1       557 6.00000E+01-4.50000E+01 5.66667E+00
 -1       558 8.00000E+01-4.50000E+01 5.66667E+00
 -1       559 1.00000E+02-4.50000E+01 5.66667E+00
 -1       560 1.20000E+02-4.50000E+01 5.66667E+00
 -1       561 1.40000E+02-4.50000E+01 5.66667E+00
 -1       562 1.60000E+02-4.50000E+01 5.66667E+00
 -1       563 1.80000E+02-4.50000E+01 5.66667E+00
 -1       564 2.00000E+02-4.50000E+01 5.66667E+00
 -1       565 0.00000E+00-4.80000E+01 1.13333E+01
 -1       566 2.00000E+01-4.80000E+01 1.13333E+01
 -1       567 0.00000E+00-4.65000E+01 1.13333E+01
 -1       568 2.00000E+01-4.65000E+01 1.13333E+01
 -1       569 4.00000E+01-4.80000E+01 1.13333E+01
 -1       570 4.00000E+01-4.65000E+01 1.13333E+01
 -1       571 6.00000E+01-4.80000E+01 1.13333E+01
 -1       572 6.00000E+01-4.65000E+01 1.13333E+01
 -1       573 8.00000E+01-4.80000E+01 1.13333E+01
 -1       574 8.00000E+01-4.65000E+01 1.13333E+01
 -1       575 1.00000E+02-4.80000E+01 1.13333E+01
 -1       576 1.00000E+02-4.65000E+01 1.13333E+01
 -1       577 1.20000E+02-4.80000E+01 1.13333E+01
 -1       578 1.20000E+02-4.65000E+01 1.13333E+01
 -1       579 1.40000E+02-4.80000E+01 1.13333E+01
 -1       580 1.40000E+02-4.65000E+01 1.13333E+01
 -1       581 1.60000E+02-4.80000E+01 1.13333E+01
 -1       582 1.60000E+02-4.65000E+01 1.13333E+01
 -1       583 1.80000E+02-4.80000E+01 1.13333E+01
 -1       584 1.80000E+02-4.65000E+01 1.13333E+01
 -1       585 2.00000E+02-4.80000E+01 1.13333E+01
 -1       586 2.00000E+02-4.65000E+01 1.13333E+01