    1C
    1UUSER                                                              
    1UDATE              30.march.2022                                   
    1UTIME              23:54:03                                        
    1UHOST                                                              
    1UPGM               CalculiX                                        
    1UVERSION           Version 2.19                             
    1UCOMPILETIME       Wed Mar 30 06:04:19 EDT 2022                    
    1UDIR                                                               
    1UDBN                                                               
    1UMAT    1ALUMINIUM                                                 
    2C                          1010                                     1
 -1         1 0.00000E+00 4.00000E+01 2.00000E+00
 -1         2 4.47858E+00 3.97485E+01 2.00000E+00
 -1         3 4.20914E+00 3.55314E+01 2.00000E+00
 -1         4 0.00000E+00 3.60000E+01 2.00000E+00
 -1         5 0.00000E+00 4.00000E+01 0.00000E+00
 -1         6 4.47858E+00 3.97485E+01 0.00000E+00
 -1         7 4.20914E+00 3.55314E+01 0.00000E+00
 -1         8 0.00000E+00 3.60000E+01 0.00000E+00
 -1         9 4.02507E+00 3.15036E+01 2.00000E+00
 -1        10 0.00000E+00 3.20000E+01 2.00000E+00
 -1        11 4.02507E+00 3.15036E+01 0.00000E+00
 -1        12 0.00000E+00 3.20000E+01 0.00000E+00
 -1        13 3.92402E+00 2.75656E+01 2.00000E+00
 -1        14 0.00000E+00 2.80000E+01 2.00000E+00
 -1        15 3.92402E+00 2.75656E+01 0.00000E+00
 -1        16 0.00000E+00 2.80000E+01 0.00000E+00
 -1        17 3.86878E+00 2.36479E+01 2.00000E+00
 -1        18 0.00000E+00 2.40000E+01 2.00000E+00
 -1        19 3.86878E+00 2.36479E+01 0.00000E+00
 -1        20 0.00000E+00 2.40000E+01 0.00000E+00
 -1        21 3.85375E+00 1.97344E+01 2.00000E+00
 -1        22 0.00000E+00 2.00000E+01 2.00000E+00
 -1        23 3.85375E+00 1.97344E+01 0.00000E+00
 -1        24 0.00000E+00 2.00000E+01 0.00000E+00
 -1        25 3.87176E+00 1.57938E+01 2.00000E+00
 -1        26 0.00000E+00 1.60000E+01 2.00000E+00
 -1        27 3.87176E+00 1.57938E+01 0.00000E+00
 -1        28 0.00000E+00 1.60000E+01 0.00000E+00
 -1        29 3.90843E+00 1.18481E+01 2.00000E+00
 -1        30 0.00000E+00 1.20000E+01 2.00000E+00
 -1        31 3.90843E+00 1.18481E+01 0.00000E+00
 -1        32 0.00000E+00 1.20000E+01 0.00000E+00
 -1        33 3.93295E+00 7.89374E+00 2.00000E+00
 -1        34 0.00000E+00 8.00000E+00 2.00000E+00
 -1        35 3.93295E+00 7.89374E+00 0.00000E+00
 -1        36 0.00000E+00 8.00000E+00 0.00000E+00
 -1        37 3.95708E+00 3.95895E+00 2.00000E+00
 -1        38 0.00000E+00 4.00000E+00 2.00000E+00
 -1        39 3.95708E+00 3.95895E+00 0.00000E+00
 -1        40 0.00000E+00 4.00000E+00 0.00000E+00
 -1        41 4.00000E+00 0.00000E+00 2.00000E+00
 -1        42 0.00000E+00 0.00000E+00 2.00000E+00
 -1        43 4.00000E+00 0.00000E+00 0.00000E+00
 -1        44 0.00000E+00 0.00000E+00 0.00000E+00
 -1        45 8.90084E+00 3.89971E+01 2.00000E+00
 -1        46 8.39568E+00 3.47998E+01 2.00000E+00
 -1        47 8.90084E+00 3.89971E+01 0.00000E+00
 -1        48 8.39568E+00 3.47998E+01 0.00000E+00
 -1        49 8.03806E+00 3.08461E+01 2.00000E+00
 -1        50 8.03806E+00 3.08461E+01 0.00000E+00
 -1        51 7.81651E+00 2.70164E+01 2.00000E+00
 -1        52 7.81651E+00 2.70164E+01 0.00000E+00
 -1        53 7.72559E+00 2.32256E+01 2.00000E+00
 -1        54 7.72559E+00 2.32256E+01 0.00000E+00
 -1        55 7.70789E+00 1.94106E+01 2.00000E+00
 -1        56 7.70789E+00 1.94106E+01 0.00000E+00
 -1        57 7.74240E+00 1.55578E+01 2.00000E+00
 -1        58 7.74240E+00 1.55578E+01 0.00000E+00
 -1        59 7.79460E+00 1.16887E+01 2.00000E+00
 -1        60 7.79460E+00 1.16887E+01 0.00000E+00
 -1        61 7.86074E+00 7.80198E+00 2.00000E+00
 -1        62 7.86074E+00 7.80198E+00 0.00000E+00
 -1        63 7.93360E+00 3.89266E+00 2.00000E+00
 -1        64 7.93360E+00 3.89266E+00 0.00000E+00
 -1        65 8.00000E+00 0.00000E+00 2.00000E+00
 -1        66 8.00000E+00 0.00000E+00 0.00000E+00
 -1        67 1.32112E+01 3.77553E+01 2.00000E+00
 -1        68 1.24859E+01 3.37326E+01 2.00000E+00
 -1        69 1.32112E+01 3.77553E+01 0.00000E+00
 -1        70 1.24859E+01 3.37326E+01 0.00000E+00
 -1        71 1.19599E+01 2.99683E+01 2.00000E+00
 -1        72 1.19599E+01 2.99683E+01 0.00000E+00
 -1        73 1.16533E+01 2.63188E+01 2.00000E+00
 -1        74 1.16533E+01 2.63188E+01 0.00000E+00
 -1        75 1.15108E+01 2.26747E+01 2.00000E+00
 -1        76 1.15108E+01 2.26747E+01 0.00000E+00
 -1        77 1.15031E+01 1.89993E+01 2.00000E+00
 -1        78 1.15031E+01 1.89993E+01 0.00000E+00
 -1        79 1.15692E+01 1.52708E+01 2.00000E+00
 -1        80 1.15692E+01 1.52708E+01 0.00000E+00
 -1        81 1.16573E+01 1.14963E+01 2.00000E+00
 -1        82 1.16573E+01 1.14963E+01 0.00000E+00
 -1        83 1.17667E+01 7.67520E+00 2.00000E+00
 -1        84 1.17667E+01 7.67520E+00 0.00000E+00
 -1        85 1.18857E+01 3.85005E+00 2.00000E+00
 -1        86 1.18857E+01 3.85005E+00 0.00000E+00
 -1        87 1.20000E+01 0.00000E+00 2.00000E+00
 -1        88 1.20000E+01 0.00000E+00 0.00000E+00
 -1        89 1.73554E+01 3.60388E+01 2.00000E+00
 -1        90 1.63949E+01 3.23130E+01 2.00000E+00
 -1        91 1.73554E+01 3.60388E+01 0.00000E+00
 -1        92 1.63949E+01 3.23130E+01 0.00000E+00
 -1        93 1.56997E+01 2.88373E+01 2.00000E+00
 -1        94 1.56997E+01 2.88373E+01 0.00000E+00
 -1        95 1.52912E+01 2.54615E+01 2.00000E+00
 -1        96 1.52912E+01 2.54615E+01 0.00000E+00
 -1        97 1.51244E+01 2.20654E+01 2.00000E+00
 -1        98 1.51244E+01 2.20654E+01 0.00000E+00
 -1        99 1.51567E+01 1.85773E+01 2.00000E+00
 -1       100 1.51567E+01 1.85773E+01 0.00000E+00
 -1       101 1.52919E+01 1.49907E+01 2.00000E+00
 -1       102 1.52919E+01 1.49907E+01 0.00000E+00
 -1       103 1.54598E+01 1.13147E+01 2.00000E+00
 -1       104 1.54598E+01 1.13147E+01 0.00000E+00
 -1       105 1.56402E+01 7.56780E+00 2.00000E+00
 -1       106 1.56402E+01 7.56780E+00 0.00000E+00
 -1       107 1.58132E+01 3.79480E+00 2.00000E+00
 -1       108 1.58132E+01 3.79480E+00 0.00000E+00
 -1       109 1.60000E+01 0.00000E+00 2.00000E+00
 -1       110 1.60000E+01 0.00000E+00 0.00000E+00
 -1       111 2.12813E+01 3.38690E+01 2.00000E+00
 -1       112 2.00581E+01 3.05348E+01 2.00000E+00
 -1       113 2.12813E+01 3.38690E+01 0.00000E+00
 -1       114 2.00581E+01 3.05348E+01 0.00000E+00
 -1       115 1.91467E+01 2.74607E+01 2.00000E+00
 -1       116 1.91467E+01 2.74607E+01 0.00000E+00
 -1       117 1.86077E+01 2.44954E+01 2.00000E+00
 -1       118 1.86077E+01 2.44954E+01 0.00000E+00
 -1       119 1.84937E+01 2.14347E+01 2.00000E+00
 -1       120 1.84937E+01 2.14347E+01 0.00000E+00
 -1       121 1.86412E+01 1.81877E+01 2.00000E+00
 -1       122 1.86412E+01 1.81877E+01 0.00000E+00
 -1       123 1.88877E+01 1.47583E+01 2.00000E+00
 -1       124 1.88877E+01 1.47583E+01 0.00000E+00
 -1       125 1.91761E+01 1.11954E+01 2.00000E+00
 -1       126 1.91761E+01 1.11954E+01 0.00000E+00
 -1       127 1.94751E+01 7.51712E+00 2.00000E+00
 -1       128 1.94751E+01 7.51712E+00 0.00000E+00
 -1       129 1.97338E+01 3.77856E+00 2.00000E+00
 -1       130 1.97338E+01 3.77856E+00 0.00000E+00
 -1       131 2.00000E+01 0.00000E+00 2.00000E+00
 -1       132 2.00000E+01 0.00000E+00 0.00000E+00
 -1       133 2.49396E+01 3.12733E+01 2.00000E+00
 -1       134 2.33527E+01 2.84399E+01 2.00000E+00
 -1       135 2.49396E+01 3.12733E+01 0.00000E+00
 -1       136 2.33527E+01 2.84399E+01 0.00000E+00
 -1       137 2.21437E+01 2.59100E+01 2.00000E+00
 -1       138 2.21437E+01 2.59100E+01 0.00000E+00
 -1       139 2.14249E+01 2.35708E+01 2.00000E+00
 -1       140 2.14249E+01 2.35708E+01 0.00000E+00
 -1       141 2.14869E+01 2.09677E+01 2.00000E+00
 -1       142 2.14869E+01 2.09677E+01 0.00000E+00
 -1       143 2.18672E+01 1.79983E+01 2.00000E+00
 -1       144 2.18672E+01 1.79983E+01 0.00000E+00
 -1       145 2.23288E+01 1.46993E+01 2.00000E+00
 -1       146 2.23288E+01 1.46993E+01 0.00000E+00
 -1       147 2.27994E+01 1.11938E+01 2.00000E+00
 -1       148 2.27994E+01 1.11938E+01 0.00000E+00
 -1       149 2.32330E+01 7.54212E+00 2.00000E+00
 -1       150 2.32330E+01 7.54212E+00 0.00000E+00
 -1       151 2.36277E+01 3.79605E+00 2.00000E+00
 -1       152 2.36277E+01 3.79605E+00 0.00000E+00
 -1       153 2.40000E+01 0.00000E+00 2.00000E+00
 -1       154 2.40000E+01 0.00000E+00 0.00000E+00
 -1       155 2.82843E+01 2.82843E+01 2.00000E+00
 -1       156 2.62084E+01 2.59953E+01 2.00000E+00
 -1       157 2.82843E+01 2.82843E+01 0.00000E+00
 -1       158 2.62084E+01 2.59953E+01 0.00000E+00
 -1       159 2.45108E+01 2.41312E+01 2.00000E+00
 -1       160 2.45108E+01 2.41312E+01 0.00000E+00
 -1       161 2.33363E+01 2.28747E+01 2.00000E+00
 -1       162 2.33363E+01 2.28747E+01 0.00000E+00
 -1       163 2.40084E+01 2.09177E+01 2.00000E+00
 -1       164 2.40084E+01 2.09177E+01 0.00000E+00
 -1       165 2.48257E+01 1.81323E+01 2.00000E+00
 -1       166 2.48257E+01 1.81323E+01 0.00000E+00
 -1       167 2.56393E+01 1.48868E+01 2.00000E+00
 -1       168 2.56393E+01 1.48868E+01 0.00000E+00
 -1       169 2.63731E+01 1.13719E+01 2.00000E+00
 -1       170 2.63731E+01 1.13719E+01 0.00000E+00
 -1       171 2.70065E+01 7.67639E+00 2.00000E+00
 -1       172 2.70065E+01 7.67639E+00 0.00000E+00
 -1       173 2.75279E+01 3.87242E+00 2.00000E+00
 -1       174 2.75279E+01 3.87242E+00 0.00000E+00
 -1       175 2.80000E+01 0.00000E+00 2.00000E+00
 -1       176 2.80000E+01 0.00000E+00 0.00000E+00
 -1       177 2.62131E+01 2.17268E+01 2.00000E+00
 -1       178 2.62131E+01 2.17268E+01 0.00000E+00
 -1       179 2.76610E+01 1.87691E+01 2.00000E+00
 -1       180 2.76610E+01 1.87691E+01 0.00000E+00
 -1       181 2.89090E+01 1.54033E+01 2.00000E+00
 -1       182 2.89090E+01 1.54033E+01 0.00000E+00
 -1       183 2.99644E+01 1.17641E+01 2.00000E+00
 -1       184 2.99644E+01 1.17641E+01 0.00000E+00
 -1       185 3.07992E+01 7.94207E+00 2.00000E+00
 -1       186 3.07992E+01 7.94207E+00 0.00000E+00
 -1       187 3.14465E+01 4.01012E+00 2.00000E+00
 -1       188 3.14465E+01 4.01012E+00 0.00000E+00
 -1       189 3.20000E+01 0.00000E+00 2.00000E+00
 -1       190 3.20000E+01 0.00000E+00 0.00000E+00
 -1       191 2.85926E+01 2.31267E+01 2.00000E+00
 -1       192 2.85926E+01 2.31267E+01 0.00000E+00
 -1       193 3.06182E+01 1.98471E+01 2.00000E+00
 -1       194 3.06182E+01 1.98471E+01 0.00000E+00
 -1       195 3.23258E+01 1.62499E+01 2.00000E+00
 -1       196 3.23258E+01 1.62499E+01 0.00000E+00
 -1       197 3.37001E+01 1.24013E+01 2.00000E+00
 -1       198 3.37001E+01 1.24013E+01 0.00000E+00
 -1       199 3.47487E+01 8.36921E+00 2.00000E+00
 -1       200 3.47487E+01 8.36921E+00 0.00000E+00
 -1       201 3.54941E+01 4.21129E+00 2.00000E+00
 -1       202 3.54941E+01 4.21129E+00 0.00000E+00
 -1       203 3.60000E+01 0.00000E+00 2.00000E+00
 -1       204 3.60000E+01 0.00000E+00 0.00000E+00
 -1       205 3.12733E+01 2.49396E+01 2.00000E+00
 -1       206 3.12733E+01 2.49396E+01 0.00000E+00
 -1       207 3.38690E+01 2.12813E+01 2.00000E+00
 -1       208 3.38690E+01 2.12813E+01 0.00000E+00
 -1       209 3.60388E+01 1.73554E+01 2.00000E+00
 -1       210 3.60388E+01 1.73554E+01 0.00000E+00
 -1       211 3.77553E+01 1.32112E+01 2.00000E+00
 -1       212 3.77553E+01 1.32112E+01 0.00000E+00
 -1       213 3.89971E+01 8.90084E+00 2.00000E+00
 -1       214 3.89971E+01 8.90084E+00 0.00000E+00
 -1       215 3.97485E+01 4.47858E+00 2.00000E+00
 -1       216 3.97485E+01 4.47858E+00 0.00000E+00
 -1       217 4.00000E+01 0.00000E+00 2.00000E+00
 -1       218 4.00000E+01 0.00000E+00 0.00000E+00
 -1       219 0.00000E+00 4.20000E+01 0.00000E+00
 -1       220 0.00000E+00 4.20000E+01 2.00000E+00
 -1       221 4.70251E+00 4.17359E+01 0.00000E+00
 -1       222 4.70251E+00 4.17359E+01 2.00000E+00
 -1       223 9.34588E+00 4.09470E+01 0.00000E+00
 -1       224 9.34588E+00 4.09470E+01 2.00000E+00
 -1       225 1.38717E+01 3.96431E+01 0.00000E+00
 -1       226 1.38717E+01 3.96431E+01 2.00000E+00
 -1       227 1.82231E+01 3.78407E+01 0.00000E+00
 -1       228 1.82231E+01 3.78407E+01 2.00000E+00
 -1       229 2.23453E+01 3.55624E+01 0.00000E+00
 -1       230 2.23453E+01 3.55624E+01 2.00000E+00
 -1       231 2.61866E+01 3.28369E+01 0.00000E+00
 -1       232 2.61866E+01 3.28369E+01 2.00000E+00
 -1       233 2.96985E+01 2.96985E+01 0.00000E+00
 -1       234 2.96985E+01 2.96985E+01 2.00000E+00
 -1       235 3.28369E+01 2.61866E+01 0.00000E+00
 -1       236 3.28369E+01 2.61866E+01 2.00000E+00
 -1       237 3.55624E+01 2.23453E+01 0.00000E+00
 -1       238 3.55624E+01 2.23453E+01 2.00000E+00
 -1       239 3.78407E+01 1.82231E+01 0.00000E+00
 -1       240 3.78407E+01 1.82231E+01 2.00000E+00
 -1       241 3.96431E+01 1.38717E+01 0.00000E+00
 -1       242 3.96431E+01 1.38717E+01 2.00000E+00
 -1       243 4.09470E+01 9.34588E+00 0.00000E+00
 -1       244 4.09470E+01 9.34588E+00 2.00000E+00
 -1       245 4.17359E+01 4.70251E+00 0.00000E+00
 -1       246 4.17359E+01 4.70251E+00 2.00000E+00
 -1       247 4.20000E+01 0.00000E+00 0.00000E+00
 -1       248 4.20000E+01 0.00000E+00 2.00000E+00
 -1       249 4.00000E+01 0.00000E+00 5.00000E+00
 -1       250 4.20000E+01 0.00000E+00 5.00000E+00
 -1       251 3.97485E+01 4.47858E+00 5.00000E+00
 -1       252 4.17359E+01 4.70251E+00 5.00000E+00
 -1       253 3.89971E+01 8.90084E+00 5.00000E+00
 -1       254 4.09470E+01 9.34588E+00 5.00000E+00
 -1       255 3.77553E+01 1.32112E+01 5.00000E+00
 -1       256 3.96431E+01 1.38717E+01 5.00000E+00
 -1       257 3.60388E+01 1.73554E+01 5.00000E+00
 -1       258 3.78407E+01 1.82231E+01 5.00000E+00
 -1       259 3.38690E+01 2.12813E+01 5.00000E+00
 -1       260 3.55624E+01 2.23453E+01 5.00000E+00
 -1       261 3.12733E+01 2.49396E+01 5.00000E+00
 -1       262 3.28369E+01 2.61866E+01 5.00000E+00
 -1       263 2.82843E+01 2.82843E+01 5.00000E+00
 -1       264 2.96985E+01 2.96985E+01 5.00000E+00
 -1       265 2.49396E+01 3.12733E+01 5.00000E+00
 -1       266 2.61866E+01 3.28369E+01 5.00000E+00
 -1       267 2.12813E+01 3.38690E+01 5.00000E+00
 -1       268 2.23453E+01 3.55624E+01 5.00000E+00
 -1       269 1.73554E+01 3.60388E+01 5.00000E+00
 -1       270 1.82231E+01 3.78407E+01 5.00000E+00
 -1       271 1.32112E+01 3.77553E+01 5.00000E+00
 -1       272 1.38717E+01 3.96431E+01 5.00000E+00
 -1       273 8.90084E+00 3.89971E+01 5.00000E+00
 -1       274 9.34588E+00 4.09470E+01 5.00000E+00
 -1       275 4.47858E+00 3.97485E+01 5.00000E+00
 -1       276 4.70251E+00 4.17359E+01 5.00000E+00
 -1       277 0.00000E+00 4.00000E+01 5.00000E+00
 -1       278 0.00000E+00 4.20000E+01 5.00000E+00
 -1       279-4.00000E+00 0.00000E+00 2.00000E+00
 -1       280-3.97720E+00 3.97720E+00 2.00000E+00
 -1       281-4.00000E+00 0.00000E+00 0.00000E+00
 -1       282-3.97720E+00 3.97720E+00 0.00000E+00
 -1       283-3.93262E+00 7.95388E+00 2.00000E+00
 -1       284-3.93262E+00 7.95388E+00 0.00000E+00
 -1       285-3.88772E+00 1.19061E+01 2.00000E+00
 -1       286-3.88772E+00 1.19061E+01 0.00000E+00
 -1       287-3.83354E+00 1.58517E+01 2.00000E+00
 -1       288-3.83354E+00 1.58517E+01 0.00000E+00
 -1       289-3.79653E+00 1.97920E+01 2.00000E+00
 -1       290-3.79653E+00 1.97920E+01 0.00000E+00
 -1       291-3.79365E+00 2.37054E+01 2.00000E+00
 -1       292-3.79365E+00 2.37054E+01 0.00000E+00
 -1       293-3.85172E+00 2.76056E+01 2.00000E+00
 -1       294-3.85172E+00 2.76056E+01 0.00000E+00
 -1       295-3.99014E+00 3.15041E+01 2.00000E+00
 -1       296-3.99014E+00 3.15041E+01 0.00000E+00
 -1       297-4.21016E+00 3.55137E+01 2.00000E+00
 -1       298-4.21016E+00 3.55137E+01 0.00000E+00
 -1       299-4.47858E+00 3.97485E+01 2.00000E+00
 -1       300-4.47858E+00 3.97485E+01 0.00000E+00
 -1       301-8.00000E+00 0.00000E+00 2.00000E+00
 -1       302-7.95388E+00 3.93262E+00 2.00000E+00
 -1       303-8.00000E+00 0.00000E+00 0.00000E+00
 -1       304-7.95388E+00 3.93262E+00 0.00000E+00
 -1       305-7.86009E+00 7.86009E+00 2.00000E+00
 -1       306-7.86009E+00 7.86009E+00 0.00000E+00
 -1       307-7.77205E+00 1.17849E+01 2.00000E+00
 -1       308-7.77205E+00 1.17849E+01 0.00000E+00
 -1       309-7.66271E+00 1.56756E+01 2.00000E+00
 -1       310-7.66271E+00 1.56756E+01 0.00000E+00
 -1       311-7.57017E+00 1.95325E+01 2.00000E+00
 -1       312-7.57017E+00 1.95325E+01 0.00000E+00
 -1       313-7.57348E+00 2.33275E+01 2.00000E+00
 -1       314-7.57348E+00 2.33275E+01 0.00000E+00
 -1       315-7.68943E+00 2.70818E+01 2.00000E+00
 -1       316-7.68943E+00 2.70818E+01 0.00000E+00
 -1       317-7.96843E+00 3.08717E+01 2.00000E+00
 -1       318-7.96843E+00 3.08717E+01 0.00000E+00
 -1       319-8.38142E+00 3.47829E+01 2.00000E+00
 -1       320-8.38142E+00 3.47829E+01 0.00000E+00
 -1       321-8.90084E+00 3.89971E+01 2.00000E+00
 -1       322-8.90084E+00 3.89971E+01 0.00000E+00
 -1       323-1.20000E+01 0.00000E+00 2.00000E+00
 -1       324-1.19061E+01 3.88772E+00 2.00000E+00
 -1       325-1.20000E+01 0.00000E+00 0.00000E+00
 -1       326-1.19061E+01 3.88772E+00 0.00000E+00
 -1       327-1.17849E+01 7.77205E+00 2.00000E+00
 -1       328-1.17849E+01 7.77205E+00 0.00000E+00
 -1       329-1.16317E+01 1.16317E+01 2.00000E+00
 -1       330-1.16317E+01 1.16317E+01 0.00000E+00
 -1       331-1.14672E+01 1.54308E+01 2.00000E+00
 -1       332-1.14672E+01 1.54308E+01 0.00000E+00
 -1       333-1.13235E+01 1.91852E+01 2.00000E+00
 -1       334-1.13235E+01 1.91852E+01 0.00000E+00
 -1       335-1.13161E+01 2.28441E+01 2.00000E+00
 -1       336-1.13161E+01 2.28441E+01 0.00000E+00
 -1       337-1.14703E+01 2.64153E+01 2.00000E+00
 -1       338-1.14703E+01 2.64153E+01 0.00000E+00
 -1       339-1.18414E+01 2.99882E+01 2.00000E+00
 -1       340-1.18414E+01 2.99882E+01 0.00000E+00
 -1       341-1.24421E+01 3.37246E+01 2.00000E+00
 -1       342-1.24421E+01 3.37246E+01 0.00000E+00
 -1       343-1.32112E+01 3.77553E+01 2.00000E+00
 -1       344-1.32112E+01 3.77553E+01 0.00000E+00
 -1       345-1.60000E+01 0.00000E+00 2.00000E+00
 -1       346-1.58517E+01 3.83354E+00 2.00000E+00
 -1       347-1.60000E+01 0.00000E+00 0.00000E+00
 -1       348-1.58517E+01 3.83354E+00 0.00000E+00
 -1       349-1.56756E+01 7.66271E+00 2.00000E+00
 -1       350-1.56756E+01 7.66271E+00 0.00000E+00
 -1       351-1.54516E+01 1.14488E+01 2.00000E+00
 -1       352-1.54516E+01 1.14488E+01 0.00000E+00
 -1       353-1.52057E+01 1.51645E+01 2.00000E+00
 -1       354-1.52057E+01 1.51645E+01 0.00000E+00
 -1       355-1.49882E+01 1.87947E+01 2.00000E+00
 -1       356-1.49882E+01 1.87947E+01 0.00000E+00
 -1       357-1.49239E+01 2.22517E+01 2.00000E+00
 -1       358-1.49239E+01 2.22517E+01 0.00000E+00
 -1       359-1.50844E+01 2.55768E+01 2.00000E+00
 -1       360-1.50844E+01 2.55768E+01 0.00000E+00
 -1       361-1.55515E+01 2.88732E+01 2.00000E+00
 -1       362-1.55515E+01 2.88732E+01 0.00000E+00
 -1       363-1.63263E+01 3.23024E+01 2.00000E+00
 -1       364-1.63263E+01 3.23024E+01 0.00000E+00
 -1       365-1.73554E+01 3.60388E+01 2.00000E+00
 -1       366-1.73554E+01 3.60388E+01 0.00000E+00
 -1       367-2.00000E+01 0.00000E+00 2.00000E+00
 -1       368-1.97920E+01 3.79653E+00 2.00000E+00
 -1       369-2.00000E+01 0.00000E+00 0.00000E+00
 -1       370-1.97920E+01 3.79653E+00 0.00000E+00
 -1       371-1.95325E+01 7.57017E+00 2.00000E+00
 -1       372-1.95325E+01 7.57017E+00 0.00000E+00
 -1       373-1.91867E+01 1.13045E+01 2.00000E+00
 -1       374-1.91867E+01 1.13045E+01 0.00000E+00
 -1       375-1.88170E+01 1.49484E+01 2.00000E+00
 -1       376-1.88170E+01 1.49484E+01 0.00000E+00
 -1       377-1.84860E+01 1.84228E+01 2.00000E+00
 -1       378-1.84860E+01 1.84228E+01 0.00000E+00
 -1       379-1.82905E+01 2.16639E+01 2.00000E+00
 -1       380-1.82905E+01 2.16639E+01 0.00000E+00
 -1       381-1.84121E+01 2.46522E+01 2.00000E+00
 -1       382-1.84121E+01 2.46522E+01 0.00000E+00
 -1       383-1.89889E+01 2.75288E+01 2.00000E+00
 -1       384-1.89889E+01 2.75288E+01 0.00000E+00
 -1       385-1.99617E+01 3.05428E+01 2.00000E+00
 -1       386-1.99617E+01 3.05428E+01 0.00000E+00
 -1       387-2.12813E+01 3.38690E+01 2.00000E+00
 -1       388-2.12813E+01 3.38690E+01 0.00000E+00
 -1       389-2.40000E+01 0.00000E+00 2.00000E+00
 -1       390-2.37054E+01 3.79365E+00 2.00000E+00
 -1       391-2.40000E+01 0.00000E+00 0.00000E+00
 -1       392-2.37054E+01 3.79365E+00 0.00000E+00
 -1       393-2.33284E+01 7.55479E+00 2.00000E+00
 -1       394-2.33284E+01 7.55479E+00 0.00000E+00
 -1       395-2.28479E+01 1.12791E+01 2.00000E+00
 -1       396-2.28479E+01 1.12791E+01 0.00000E+00
 -1       397-2.22932E+01 1.48652E+01 2.00000E+00
 -1       398-2.22932E+01 1.48652E+01 0.00000E+00
 -1       399-2.17293E+01 1.82124E+01 2.00000E+00
 -1       400-2.17293E+01 1.82124E+01 0.00000E+00
 -1       401-2.12992E+01 2.11956E+01 2.00000E+00
 -1       402-2.12992E+01 2.11956E+01 0.00000E+00
 -1       403-2.12272E+01 2.37507E+01 2.00000E+00
 -1       404-2.12272E+01 2.37507E+01 0.00000E+00
 -1       405-2.19658E+01 2.60070E+01 2.00000E+00
 -1       406-2.19658E+01 2.60070E+01 0.00000E+00
 -1       407-2.32519E+01 2.84634E+01 2.00000E+00
 -1       408-2.32519E+01 2.84634E+01 0.00000E+00
 -1       409-2.49396E+01 3.12733E+01 2.00000E+00
 -1       410-2.49396E+01 3.12733E+01 0.00000E+00
 -1       411-2.80000E+01 0.00000E+00 2.00000E+00
 -1       412-2.76056E+01 3.85172E+00 2.00000E+00
 -1       413-2.80000E+01 0.00000E+00 0.00000E+00
 -1       414-2.76056E+01 3.85172E+00 0.00000E+00
 -1       415-2.70831E+01 7.67133E+00 2.00000E+00
 -1       416-2.70831E+01 7.67133E+00 0.00000E+00
 -1       417-2.64198E+01 1.14362E+01 2.00000E+00
 -1       418-2.64198E+01 1.14362E+01 0.00000E+00
 -1       419-2.56211E+01 1.50270E+01 2.00000E+00
 -1       420-2.56211E+01 1.50270E+01 0.00000E+00
 -1       421-2.47216E+01 1.83161E+01 2.00000E+00
 -1       422-2.47216E+01 1.83161E+01 0.00000E+00
 -1       423-2.38410E+01 2.11278E+01 2.00000E+00
 -1       424-2.38410E+01 2.11278E+01 0.00000E+00
 -1       425-2.31508E+01 2.30451E+01 2.00000E+00
 -1       426-2.31508E+01 2.30451E+01 0.00000E+00
 -1       427-2.43389E+01 2.42548E+01 2.00000E+00
 -1       428-2.43389E+01 2.42548E+01 0.00000E+00
 -1       429-2.60963E+01 2.60545E+01 2.00000E+00
 -1       430-2.60963E+01 2.60545E+01 0.00000E+00
 -1       431-2.82843E+01 2.82843E+01 2.00000E+00
 -1       432-2.82843E+01 2.82843E+01 0.00000E+00
 -1       433-3.20000E+01 0.00000E+00 2.00000E+00
 -1       434-3.15041E+01 3.99177E+00 2.00000E+00
 -1       435-3.20000E+01 0.00000E+00 0.00000E+00
 -1       436-3.15041E+01 3.99177E+00 0.00000E+00
 -1       437-3.08731E+01 7.95268E+00 2.00000E+00
 -1       438-3.08731E+01 7.95268E+00 0.00000E+00
 -1       439-3.00096E+01 1.18233E+01 2.00000E+00
 -1       440-3.00096E+01 1.18233E+01 0.00000E+00
 -1       441-2.89173E+01 1.55124E+01 2.00000E+00
 -1       442-2.89173E+01 1.55124E+01 0.00000E+00
 -1       443-2.75966E+01 1.89097E+01 2.00000E+00
 -1       444-2.75966E+01 1.89097E+01 0.00000E+00
 -1       445-2.60811E+01 2.18707E+01 2.00000E+00
 -1       446-2.60811E+01 2.18707E+01 0.00000E+00
 -1       447-3.60000E+01 0.00000E+00 2.00000E+00
 -1       448-3.55137E+01 4.21016E+00 2.00000E+00
 -1       449-3.60000E+01 0.00000E+00 0.00000E+00
 -1       450-3.55137E+01 4.21016E+00 0.00000E+00
 -1       451-3.47849E+01 8.36489E+00 2.00000E+00
 -1       452-3.47849E+01 8.36489E+00 0.00000E+00
 -1       453-3.37281E+01 1.24258E+01 2.00000E+00
 -1       454-3.37281E+01 1.24258E+01 0.00000E+00
 -1       455-3.23241E+01 1.63073E+01 2.00000E+00
 -1       456-3.23241E+01 1.63073E+01 0.00000E+00
 -1       457-3.05884E+01 1.99226E+01 2.00000E+00
 -1       458-3.05884E+01 1.99226E+01 0.00000E+00
 -1       459-2.85126E+01 2.31948E+01 2.00000E+00
 -1       460-2.85126E+01 2.31948E+01 0.00000E+00
 -1       461-4.00000E+01 0.00000E+00 2.00000E+00
 -1       462-3.97485E+01 4.47858E+00 2.00000E+00
 -1       463-4.00000E+01 0.00000E+00 0.00000E+00
 -1       464-3.97485E+01 4.47858E+00 0.00000E+00
 -1       465-3.89971E+01 8.90084E+00 2.00000E+00
 -1       466-3.89971E+01 8.90084E+00 0.00000E+00
 -1       467-3.77553E+01 1.32112E+01 2.00000E+00
 -1       468-3.77553E+01 1.32112E+01 0.00000E+00
 -1       469-3.60388E+01 1.73554E+01 2.00000E+00
 -1       470-3.60388E+01 1.73554E+01 0.00000E+00
 -1       471-3.38690E+01 2.12813E+01 2.00000E+00
 -1       472-3.38690E+01 2.12813E+01 0.00000E+00
 -1       473-3.12733E+01 2.49396E+01 2.00000E+00
 -1       474-3.12733E+01 2.49396E+01 0.00000E+00
 -1       475-4.20000E+01 0.00000E+00 0.00000E+00
 -1       476-4.20000E+01 0.00000E+00 2.00000E+00
 -1       477-4.17359E+01 4.70251E+00 0.00000E+00
 -1       478-4.17359E+01 4.70251E+00 2.00000E+00
 -1       479-4.09470E+01 9.34588E+00 0.00000E+00
 -1       480-4.09470E+01 9.34588E+00 2.00000E+00
 -1       481-3.96431E+01 1.38717E+01 0.00000E+00
 -1       482-3.96431E+01 1.38717E+01 2.00000E+00
 -1       483-3.78407E+01 1.82231E+01 0.00000E+00
 -1       484-3.78407E+01 1.82231E+01 2.00000E+00
 -1       485-3.55624E+01 2.23453E+01 0.00000E+00
 -1       486-3.55624E+01 2.23453E+01 2.00000E+00
 -1       487-3.28369E+01 2.61866E+01 0.00000E+00
 -1       488-3.28369E+01 2.61866E+01 2.00000E+00
 -1       489-2.96985E+01 2.96985E+01 0.00000E+00
 -1       490-2.96985E+01 2.96985E+01 2.00000E+00
 -1       491-2.61866E+01 3.28369E+01 0.00000E+00
 -1       492-2.61866E+01 3.28369E+01 2.00000E+00
 -1       493-2.23453E+01 3.55624E+01 0.00000E+00
 -1       494-2.23453E+01 3.55624E+01 2.00000E+00
 -1       495-1.82231E+01 3.78407E+01 0.00000E+00
 -1       496-1.82231E+01 3.78407E+01 2.00000E+00
 -1       497-1.38717E+01 3.96431E+01 0.00000E+00
 -1       498-1.38717E+01 3.96431E+01 2.00000E+00
 -1       499-9.34588E+00 4.09470E+01 0.00000E+00
 -1       500-9.34588E+00 4.09470E+01 2.00000E+00
 -1       501-4.70251E+00 4.17359E+01 0.00000E+00
 -1       502-4.70251E+00 4.17359E+01 2.00000E+00
 -1       503-4.47858E+00 3.97485E+01 5.00000E+00
 -1       504-4.70251E+00 4.17359E+01 5.00000E+00
 -1       505-8.90084E+00 3.89971E+01 5.00000E+00
 -1       506-9.34588E+00 4.09470E+01 5.00000E+00
 -1       507-1.32112E+01 3.77553E+01 5.00000E+00
 -1       508-1.38717E+01 3.96431E+01 5.00000E+00
 -1       509-1.73554E+01 3.60388E+01 5.00000E+00
 -1       510-1.82231E+01 3.78407E+01 5.00000E+00
 -1       511-2.12813E+01 3.38690E+01 5.00000E+00
 -1       512-2.23453E+01 3.55624E+01 5.00000E+00
 -1       513-2.49396E+01 3.12733E+01 5.00000E+00
 -1       514-2.61866E+01 3.28369E+01 5.00000E+00
 -1       515-2.82843E+01 2.82843E+01 5.00000E+00
 -1       516-2.96985E+01 2.96985E+01 5.00000E+00
 -1       517-3.12733E+01 2.49396E+01 5.00000E+00
 -1       518-3.28369E+01 2.61866E+01 5.00000E+00
 -1       519-3.38690E+01 2.12813E+01 5.00000E+00
 -1       520-3.55624E+01 2.23453E+01 5.00000E+00
 -1       521-3.60388E+01 1.73554E+01 5.00000E+00
 -1       522-3.78407E+01 1.82231E+01 5.00000E+00
 -1       523-3.77553E+01 1.32112E+01 5.00000E+00
 -1       524-3.96431E+01 1.38717E+01 5.00000E+00
 -1       525-3.89971E+01 8.90084E+00 5.00000E+00
 -1       526-4.09470E+01 9.34588E+00 5.00000E+00
 -1       527-3.97485E+01 4.47858E+00 5.00000E+00
 -1       528-4.17359E+01 4.70251E+00 5.00000E+00
 -1       529-4.00000E+01 0.00000E+00 5.00000E+00
 -1       530-4.20000E+01 0.00000E+00 5.00000E+00
 -1       531 3.97720E+00-3.97720E+00 2.00000E+00
 -1       532 0.00000E+00-4.00000E+00 2.00000E+00
 -1       533 3.97720E+00-3.97720E+00 0.00000E+00
 -1       534 0.00000E+00-4.00000E+00 0.00000E+00
 -1       535 3.93262E+00-7.95388E+00 2.00000E+00
 -1       536 0.00000E+00-8.00000E+00 2.00000E+00
 -1       537 3.93262E+00-7.95388E+00 0.00000E+00
 -1       538 0.00000E+00-8.00000E+00 0.00000E+00
 -1       539 3.88772E+00-1.19061E+01 2.00000E+00
 -1       540 0.00000E+00-1.20000E+01 2.00000E+00
 -1       541 3.88772E+00-1.19061E+01 0.00000E+00
 -1       542 0.00000E+00-1.20000E+01 0.00000E+00
 -1       543 3.83354E+00-1.58517E+01 2.00000E+00
 -1       544 0.00000E+00-1.60000E+01 2.00000E+00
 -1       545 3.83354E+00-1.58517E+01 0.00000E+00
 -1       546 0.00000E+00-1.60000E+01 0.00000E+00
 -1       547 3.79653E+00-1.97920E+01 2.00000E+00
 -1       548 0.00000E+00-2.00000E+01 2.00000E+00
 -1       549 3.79653E+00-1.97920E+01 0.00000E+00
 -1       550 0.00000E+00-2.00000E+01 0.00000E+00
 -1       551 3.79365E+00-2.37054E+01 2.00000E+00
 -1       552 0.00000E+00-2.40000E+01 2.00000E+00
 -1       553 3.79365E+00-2.37054E+01 0.00000E+00
 -1       554 0.00000E+00-2.40000E+01 0.00000E+00
 -1       555 3.85172E+00-2.76056E+01 2.00000E+00
 -1       556 0.00000E+00-2.80000E+01 2.00000E+00
 -1       557 3.85172E+00-2.76056E+01 0.00000E+00
 -1       558 0.00000E+00-2.80000E+01 0.00000E+00
 -1       559 3.99014E+00-3.15041E+01 2.00000E+00
 -1       560 0.00000E+00-3.20000E+01 2.00000E+00
 -1       561 3.99014E+00-3.15041E+01 0.00000E+00
 -1       562 0.00000E+00-3.20000E+01 0.00000E+00
 -1       563 4.21016E+00-3.55137E+01 2.00000E+00
 -1       564 0.00000E+00-3.60000E+01 2.00000E+00
 -1       565 4.21016E+00-3.55137E+01 0.00000E+00
 -1       566 0.00000E+00-3.60000E+01 0.00000E+00
 -1       567 4.47858E+00-3.97485E+01 2.00000E+00
 -1       568 0.00000E+00-4.00000E+01 2.00000E+00
 -1       569 4.47858E+00-3.97485E+01 0.00000E+00
 -1       570 0.00000E+00-4.00000E+01 0.00000E+00
 -1       571 7.95388E+00-3.93262E+00 2.00000E+00
 -1       572 7.95388E+00-3.93262E+00 0.00000E+00
 -1       573 7.86009E+00-7.86009E+00 2.00000E+00
 -1       574 7.86009E+00-7.86009E+00 0.00000E+00
 -1       575 7.77205E+00-1.17849E+01 2.00000E+00
 -1       576 7.77205E+00-1.17849E+01 0.00000E+00
 -1       577 7.66271E+00-1.56756E+01 2.00000E+00
 -1       578 7.66271E+00-1.56756E+01 0.00000E+00
 -1       579 7.57017E+00-1.95325E+01 2.00000E+00
 -1       580 7.57017E+00-1.95325E+01 0.00000E+00
 -1       581 7.57348E+00-2.33275E+01 2.00000E+00
 -1       582 7.57348E+00-2.33275E+01 0.00000E+00
 -1       583 7.68943E+00-2.70818E+01 2.00000E+00