    1C
    1UUSER                                                              
    1UDATE              29.march.2022                                   
    1UTIME              22:38:23                                        
    1UHOST                                                              
    1UPGM               CalculiX                                        
    1UVERSION           Version 2.13                             
    1UCOMPILETIME       Fri Jun 12 23:46:00 EDT 2020                    
    1UDIR                                                               
    1UDBN                                                               
    1UMAT    1STEEL                                                     
    2C                           612                                     1
 -1         1 1.84719E+02 6.84967E+00 0.00000E+00
 -1         2 1.86667E+02 0.00000E+00 0.00000E+00
 -1         3 1.92354E+02 6.86356E+00 0.00000E+00
 -1         4 1.85693E+02 3.42483E+00 0.00000E+00
 -1         5 1.89510E+02 3.43178E+00 0.00000E+00
 -1         6 1.88536E+02 6.85662E+00 0.00000E+00
 -1         7 1.89807E+02 1.44675E+01 0.00000E+00
 -1         8 1.87263E+02 1.06586E+01 0.00000E+00
 -1         9 1.91080E+02 1.06655E+01 0.00000E+00
 -1        10 1.86667E+02 2.00000E+01 0.00000E+00
 -1        11 1.80000E+02 2.00000E+01 0.00000E+00
 -1        12 1.82346E+02 1.34884E+01 0.00000E+00
 -1        13 1.83333E+02 2.00000E+01 0.00000E+00
 -1        14 1.81173E+02 1.67442E+01 0.00000E+00
 -1        15 1.84506E+02 1.67442E+01 0.00000E+00
 -1        16 1.73333E+02 2.00000E+01 0.00000E+00
 -1        17 1.75574E+02 1.33562E+01 0.00000E+00
 -1        18 1.76667E+02 2.00000E+01 0.00000E+00
 -1        19 1.74454E+02 1.66781E+01 0.00000E+00
 -1        20 1.77787E+02 1.66781E+01 0.00000E+00
 -1        21 9.53070E+01 7.96307E+01 0.00000E+00
 -1        22 1.00000E+02 8.00000E+01 0.00000E+00
 -1        23 1.00000E+02 1.00000E+02 0.00000E+00
 -1        24 9.76462E+01 7.99075E+01 0.00000E+00
 -1        25 1.00000E+02 9.00000E+01 0.00000E+00
 -1        26 9.76535E+01 8.98153E+01 0.00000E+00
 -1        27 7.32698E+01 6.36197E+01 0.00000E+00
 -1        28 7.57295E+01 6.76336E+01 0.00000E+00
 -1        29 6.81417E+01 6.56967E+01 0.00000E+00
 -1        30 7.44208E+01 6.56750E+01 0.00000E+00
 -1        31 7.19356E+01 6.66651E+01 0.00000E+00
 -1        32 7.07058E+01 6.46582E+01 0.00000E+00
 -1        33 6.00000E+01 1.00000E+02 0.00000E+00
 -1        34 4.00000E+01 1.00000E+02 0.00000E+00
 -1        35 5.78203E+01 8.47169E+01 0.00000E+00
 -1        36 5.00000E+01 1.00000E+02 0.00000E+00
 -1        37 4.89102E+01 9.23584E+01 0.00000E+00
 -1        38 5.89102E+01 9.23584E+01 0.00000E+00
 -1        39 1.60000E+02 2.00000E+01 0.00000E+00
 -1        40 1.53333E+02 2.00000E+01 0.00000E+00
 -1        41 1.55556E+02 1.33333E+01 0.00000E+00
 -1        42 1.56667E+02 2.00000E+01 0.00000E+00
 -1        43 1.54444E+02 1.66667E+01 0.00000E+00
 -1        44 1.57778E+02 1.66667E+01 0.00000E+00
 -1        45 0.00000E+00 1.00000E+02 0.00000E+00
 -1        46 0.00000E+00 8.00000E+01 0.00000E+00
 -1        47 1.95219E+01 8.38876E+01 0.00000E+00
 -1        48 0.00000E+00 9.00000E+01 0.00000E+00
 -1        49 9.76094E+00 8.19438E+01 0.00000E+00
 -1        50 9.76094E+00 9.19438E+01 0.00000E+00
 -1        51 7.35124E+01 7.76093E+01 0.00000E+00
 -1        52 6.15619E+01 7.20622E+01 0.00000E+00
 -1        53 6.56664E+01 8.11631E+01 0.00000E+00
 -1        54 5.96911E+01 7.83896E+01 0.00000E+00
 -1        55 6.75372E+01 7.48358E+01 0.00000E+00
 -1        56 6.36698E+01 4.53117E+01 0.00000E+00
 -1        57 7.03693E+01 4.53070E+01 0.00000E+00
 -1        58 6.59236E+01 5.04117E+01 0.00000E+00
 -1        59 6.70196E+01 4.53093E+01 0.00000E+00
 -1        60 6.81465E+01 4.78593E+01 0.00000E+00
 -1        61 6.47967E+01 4.78617E+01 0.00000E+00
 -1        62 8.00000E+01 1.00000E+02 0.00000E+00
 -1        63 7.00000E+01 1.00000E+02 0.00000E+00
 -1        64 6.89102E+01 9.23584E+01 0.00000E+00
 -1        65 9.07295E+01 7.85317E+01 0.00000E+00
 -1        66 8.68262E+01 8.38817E+01 0.00000E+00
 -1        67 9.29966E+01 7.91711E+01 0.00000E+00
 -1        68 9.10666E+01 8.17562E+01 0.00000E+00
 -1        69 8.87778E+01 8.12067E+01 0.00000E+00
 -1        70 7.87868E+01 7.12132E+01 0.00000E+00
 -1        71 7.71878E+01 6.94834E+01 0.00000E+00
 -1        72 7.61496E+01 7.44113E+01 0.00000E+00
 -1        73 7.46210E+01 7.26214E+01 0.00000E+00
 -1        74 8.63803E+01 7.67302E+01 0.00000E+00
 -1        75 8.85195E+01 7.77164E+01 0.00000E+00
 -1        76 8.66032E+01 8.03059E+01 0.00000E+00
 -1        77 9.00000E+01 1.00000E+02 0.00000E+00
 -1        78 8.34131E+01 9.19408E+01 0.00000E+00
 -1        79 9.34131E+01 9.19408E+01 0.00000E+00
 -1        80 8.23664E+01 7.42705E+01 0.00000E+00
 -1        81 8.05166E+01 7.28122E+01 0.00000E+00
 -1        82 7.79394E+01 7.59399E+01 0.00000E+00
 -1        83 7.67562E+01 8.88047E+01 0.00000E+00
 -1        84 0.00000E+00 2.00000E+01 0.00000E+00
 -1        85 0.00000E+00 0.00000E+00 0.00000E+00
 -1        86 9.83511E+00 9.65260E+00 0.00000E+00
 -1        87 0.00000E+00 1.00000E+01 0.00000E+00
 -1        88 4.91756E+00 4.82630E+00 0.00000E+00
 -1        89 4.91756E+00 1.48263E+01 0.00000E+00
 -1        90 0.00000E+00 6.00000E+01 0.00000E+00
 -1        91 0.00000E+00 4.00000E+01 0.00000E+00
 -1        92 1.82716E+01 5.07228E+01 0.00000E+00
 -1        93 0.00000E+00 5.00000E+01 0.00000E+00
 -1        94 9.13580E+00 4.53614E+01 0.00000E+00
 -1        95 9.13580E+00 5.53614E+01 0.00000E+00
 -1        96 2.00000E+01 1.00000E+02 0.00000E+00
 -1        97 1.00000E+01 1.00000E+02 0.00000E+00
 -1        98 1.97609E+01 9.19438E+01 0.00000E+00
 -1        99 7.03693E+01 5.46930E+01 0.00000E+00
 -1       100 7.14683E+01 5.92705E+01 0.00000E+00
 -1       101 6.47585E+01 5.70482E+01 0.00000E+00
 -1       102 7.08289E+01 5.70034E+01 0.00000E+00
 -1       103 6.81134E+01 5.81594E+01 0.00000E+00
 -1       104 6.75639E+01 5.58706E+01 0.00000E+00
 -1       105 3.00000E+01 1.00000E+02 0.00000E+00
 -1       106 2.97609E+01 9.19438E+01 0.00000E+00
 -1       107 6.53410E+01 5.37300E+01 0.00000E+00
 -1       108 6.81465E+01 5.25524E+01 0.00000E+00
 -1       109 3.94842E+01 7.36081E+01 0.00000E+00
 -1       110 4.77124E+01 5.87631E+01 0.00000E+00
 -1       111 5.26644E+01 7.00559E+01 0.00000E+00
 -1       112 4.35983E+01 6.61856E+01 0.00000E+00
 -1       113 5.01884E+01 6.44095E+01 0.00000E+00
 -1       114 4.60743E+01 7.18320E+01 0.00000E+00
 -1       115 1.89221E+01 2.68341E+01 0.00000E+00
 -1       116 0.00000E+00 3.00000E+01 0.00000E+00
 -1       117 9.46107E+00 2.34170E+01 0.00000E+00
 -1       118 9.46107E+00 3.34170E+01 0.00000E+00
 -1       119 2.02842E+01 1.01248E+01 0.00000E+00
 -1       120 2.00000E+01 0.00000E+00 0.00000E+00
 -1       121 2.77905E+01 5.54815E+00 0.00000E+00
 -1       122 2.01421E+01 5.06241E+00 0.00000E+00
 -1       123 2.38952E+01 2.77408E+00 0.00000E+00
 -1       124 2.40373E+01 7.83649E+00 0.00000E+00
 -1       125 1.80000E+02 0.00000E+00 0.00000E+00
 -1       126 1.83333E+02 0.00000E+00 0.00000E+00
 -1       127 1.82360E+02 3.42483E+00 0.00000E+00
 -1       128 4.55340E+01 4.61341E+01 0.00000E+00
 -1       129 3.51680E+01 5.54586E+01 0.00000E+00
 -1       130 4.66232E+01 5.24486E+01 0.00000E+00
 -1       131 4.14402E+01 5.71108E+01 0.00000E+00
 -1       132 4.03510E+01 5.07964E+01 0.00000E+00
 -1       133 3.36044E+01 4.00503E+01 0.00000E+00
 -1       134 1.85969E+01 3.87784E+01 0.00000E+00
 -1       135 2.62633E+01 3.34422E+01 0.00000E+00
 -1       136 2.59380E+01 4.53865E+01 0.00000E+00
 -1       137 3.73261E+01 6.45333E+01 0.00000E+00
 -1       138 4.64457E+01 2.40790E+01 0.00000E+00
 -1       139 3.66346E+01 2.69317E+01 0.00000E+00
 -1       140 4.10207E+01 1.86452E+01 0.00000E+00
 -1       141 4.15401E+01 2.55054E+01 0.00000E+00
 -1       142 3.88277E+01 2.27885E+01 0.00000E+00
 -1       143 4.37332E+01 2.13621E+01 0.00000E+00
 -1       144 3.33333E+01 0.00000E+00 0.00000E+00
 -1       145 4.00000E+01 0.00000E+00 0.00000E+00
 -1       146 3.48829E+01 6.53243E+00 0.00000E+00
 -1       147 3.66667E+01 0.00000E+00 0.00000E+00
 -1       148 3.74414E+01 3.26621E+00 0.00000E+00
 -1       149 3.41081E+01 3.26621E+00 0.00000E+00
 -1       150 5.71046E+01 4.98606E+01 0.00000E+00
 -1       151 5.13193E+01 4.79974E+01 0.00000E+00
 -1       152 5.24085E+01 5.43119E+01 0.00000E+00
 -1       153 4.66667E+01 0.00000E+00 0.00000E+00
 -1       154 4.62406E+01 3.89424E+00 0.00000E+00
 -1       155 4.33333E+01 0.00000E+00 0.00000E+00
 -1       156 4.64536E+01 1.94712E+00 0.00000E+00
 -1       157 4.31203E+01 1.94712E+00 0.00000E+00
 -1       158 7.32698E+01 3.63803E+01 0.00000E+00
 -1       159 7.14683E+01 4.07295E+01 0.00000E+00
 -1       160 6.80806E+01 3.67237E+01 0.00000E+00
 -1       161 7.22836E+01 3.85195E+01 0.00000E+00
 -1       162 6.97744E+01 3.87266E+01 0.00000E+00
 -1       163 7.06752E+01 3.65520E+01 0.00000E+00
 -1       164 5.93437E+01 3.01429E+01 0.00000E+00
 -1       165 6.57041E+01 3.14814E+01 0.00000E+00
 -1       166 6.07584E+01 3.87574E+01 0.00000E+00
 -1       167 6.25239E+01 3.08121E+01 0.00000E+00
 -1       168 6.32313E+01 3.51194E+01 0.00000E+00
 -1       169 6.00511E+01 3.44501E+01 0.00000E+00
 -1       170 7.57295E+01 3.23664E+01 0.00000E+00
 -1       171 7.19668E+01 3.19174E+01 0.00000E+00
 -1       172 7.44208E+01 3.43250E+01 0.00000E+00
 -1       173 7.26183E+01 3.41489E+01 0.00000E+00
 -1       174 7.38481E+01 3.21419E+01 0.00000E+00
 -1       175 7.87868E+01 2.87868E+01 0.00000E+00
 -1       176 7.07132E+01 2.61531E+01 0.00000E+00
 -1       177 7.62294E+01 2.38060E+01 0.00000E+00
 -1       178 7.47500E+01 2.74699E+01 0.00000E+00
 -1       179 7.34713E+01 2.49796E+01 0.00000E+00
 -1       180 7.75081E+01 2.62964E+01 0.00000E+00
 -1       181 1.06667E+02 2.00000E+01 0.00000E+00
 -1       182 1.00000E+02 2.00000E+01 0.00000E+00
 -1       183 1.02471E+02 1.39115E+01 0.00000E+00
 -1       184 1.03333E+02 2.00000E+01 0.00000E+00
 -1       185 1.01236E+02 1.69558E+01 0.00000E+00
 -1       186 1.04569E+02 1.69558E+01 0.00000E+00
 -1       187 8.43839E+01 8.26152E+00 0.00000E+00
 -1       188 8.66667E+01 0.00000E+00 0.00000E+00
 -1       189 9.04353E+01 7.61978E+00 0.00000E+00
 -1       190 8.55253E+01 4.13076E+00 0.00000E+00
 -1       191 8.85510E+01 3.80989E+00 0.00000E+00
 -1       192 8.74096E+01 7.94065E+00 0.00000E+00
 -1       193 6.73403E+01 2.16873E+01 0.00000E+00
 -1       194 6.40004E+01 2.54280E+01 0.00000E+00
 -1       195 6.30151E+01 1.90078E+01 0.00000E+00
 -1       196 6.56703E+01 2.35576E+01 0.00000E+00
 -1       197 6.35077E+01 2.22179E+01 0.00000E+00
 -1       198 6.51777E+01 2.03475E+01 0.00000E+00
 -1       199 7.00237E+01 3.43206E+01 0.00000E+00
 -1       200 9.76780E+01 1.54046E+01 0.00000E+00
 -1       201 9.88390E+01 1.77023E+01 0.00000E+00
 -1       202 1.00075E+02 1.46581E+01 0.00000E+00
 -1       203 7.74680E+01 1.84021E+01 0.00000E+00
 -1       204 7.19502E+01 2.01384E+01 0.00000E+00
 -1       205 7.29082E+01 1.35752E+01 0.00000E+00
 -1       206 7.47091E+01 1.92702E+01 0.00000E+00
 -1       207 7.24292E+01 1.68568E+01 0.00000E+00
 -1       208 7.51881E+01 1.59887E+01 0.00000E+00
 -1       209 7.84864E+01 1.04777E+01 0.00000E+00
 -1       210 8.00000E+01 0.00000E+00 0.00000E+00
 -1       211 7.92432E+01 5.23883E+00 0.00000E+00
 -1       212 8.21920E+01 4.13076E+00 0.00000E+00
 -1       213 8.14351E+01 9.36959E+00 0.00000E+00
 -1       214 8.63803E+01 2.32698E+01 0.00000E+00
 -1       215 8.23664E+01 2.57295E+01 0.00000E+00
 -1       216 8.28468E+01 1.67630E+01 0.00000E+00
 -1       217 8.43250E+01 2.44208E+01 0.00000E+00
 -1       218 8.26066E+01 2.12462E+01 0.00000E+00
 -1       219 8.46135E+01 2.00164E+01 0.00000E+00
 -1       220 9.32062E+01 1.45937E+01 0.00000E+00
 -1       221 9.73262E+01 8.26412E+00 0.00000E+00
 -1       222 9.18207E+01 1.11068E+01 0.00000E+00
 -1       223 9.38807E+01 7.94195E+00 0.00000E+00
 -1       224 9.52662E+01 1.14289E+01 0.00000E+00
 -1       225 9.07295E+01 2.14683E+01 0.00000E+00
 -1       226 8.79699E+01 1.52037E+01 0.00000E+00
 -1       227 8.85195E+01 2.22836E+01 0.00000E+00
 -1       228 8.71751E+01 1.92368E+01 0.00000E+00
 -1       229 8.93497E+01 1.83360E+01 0.00000E+00
 -1       230 9.53070E+01 2.03694E+01 0.00000E+00
 -1       231 9.76462E+01 2.00925E+01 0.00000E+00
 -1       232 9.64925E+01 1.78870E+01 0.00000E+00
 -1       233 8.61769E+01 1.17326E+01 0.00000E+00
 -1       234 8.92026E+01 1.14118E+01 0.00000E+00
 -1       235 9.05880E+01 1.48987E+01 0.00000E+00
 -1       236 1.00000E+02 0.00000E+00 0.00000E+00
 -1       237 1.06667E+02 0.00000E+00 0.00000E+00
 -1       238 1.04406E+02 7.01936E+00 0.00000E+00
 -1       239 1.03333E+02 0.00000E+00 0.00000E+00
 -1       240 1.05537E+02 3.50968E+00 0.00000E+00
 -1       241 1.02203E+02 3.50968E+00 0.00000E+00
 -1       242 1.13333E+02 2.00000E+01 0.00000E+00
 -1       243 1.08917E+02 1.34621E+01 0.00000E+00
 -1       244 1.10000E+02 2.00000E+01 0.00000E+00
 -1       245 1.07792E+02 1.67311E+01 0.00000E+00
 -1       246 1.11125E+02 1.67311E+01 0.00000E+00
 -1       247 1.05694E+02 1.36868E+01 0.00000E+00
 -1       248 1.20000E+02 2.00000E+01 0.00000E+00
 -1       249 1.15559E+02 1.33584E+01 0.00000E+00
 -1       250 1.16667E+02 2.00000E+01 0.00000E+00
 -1       251 1.14446E+02 1.66792E+01 0.00000E+00
 -1       252 1.17779E+02 1.66792E+01 0.00000E+00
 -1       253 1.03439E+02 1.04654E+01 0.00000E+00
 -1       254 1.06662E+02 1.02407E+01 0.00000E+00
 -1       255 1.26667E+02 2.00000E+01 0.00000E+00
 -1       256 1.22223E+02 1.33378E+01 0.00000E+00
 -1       257 1.23333E+02 2.00000E+01 0.00000E+00
 -1       258 1.21111E+02 1.66689E+01 0.00000E+00
 -1       259 1.24445E+02 1.66689E+01 0.00000E+00
 -1       260 1.11109E+02 6.73994E+00 0.00000E+00
 -1       261 1.12238E+02 1.34103E+01 0.00000E+00
 -1       262 1.10013E+02 1.01010E+01 0.00000E+00
 -1       263 1.13334E+02 1.00492E+01 0.00000E+00
 -1       264 1.33333E+02 2.00000E+01 0.00000E+00
 -1       265 1.28889E+02 1.33341E+01 0.00000E+00
 -1       266 1.30000E+02 2.00000E+01 0.00000E+00
 -1       267 1.27778E+02 1.66670E+01 0.00000E+00
 -1       268 1.31111E+02 1.66670E+01 0.00000E+00
 -1       269 1.17778E+02 6.68090E+00 0.00000E+00
 -1       270 1.18891E+02 1.33481E+01 0.00000E+00
 -1       271 1.16668E+02 1.00197E+01 0.00000E+00
 -1       272 1.20000E+02 1.00094E+01 0.00000E+00
 -1       273 1.40000E+02 2.00000E+01 0.00000E+00
 -1       274 1.35556E+02 1.33335E+01 0.00000E+00
 -1       275 1.36667E+02 2.00000E+01 0.00000E+00
 -1       276 1.34444E+02 1.66667E+01 0.00000E+00
 -1       277 1.37778E+02 1.66667E+01 0.00000E+00
 -1       278 1.24444E+02 6.66927E+00 0.00000E+00
 -1       279 1.25556E+02 1.33360E+01 0.00000E+00
 -1       280 1.23334E+02 1.00035E+01 0.00000E+00
 -1       281 1.26667E+02 1.00017E+01 0.00000E+00
 -1       282 1.46667E+02 2.00000E+01 0.00000E+00
 -1       283 1.42222E+02 1.33334E+01 0.00000E+00
 -1       284 1.43333E+02 2.00000E+01 0.00000E+00
 -1       285 1.41111E+02 1.66667E+01 0.00000E+00
 -1       286 1.44444E+02 1.66667E+01 0.00000E+00
 -1       287 1.31111E+02 6.66712E+00 0.00000E+00
 -1       288 1.32222E+02 1.33338E+01 0.00000E+00
 -1       289 1.30000E+02 1.00006E+01 0.00000E+00
 -1       290 1.33333E+02 1.00003E+01 0.00000E+00
 -1       291 1.48889E+02 1.33333E+01 0.00000E+00
 -1       292 1.50000E+02 2.00000E+01 0.00000E+00
 -1       293 1.47778E+02 1.66667E+01 0.00000E+00
 -1       294 1.51111E+02 1.66667E+01 0.00000E+00
 -1       295 1.37778E+02 6.66674E+00 0.00000E+00
 -1       296 1.38889E+02 1.33334E+01 0.00000E+00
 -1       297 1.36667E+02 1.00001E+01 0.00000E+00
 -1       298 1.40000E+02 1.00000E+01 0.00000E+00
 -1       299 1.51111E+02 6.66667E+00 0.00000E+00
 -1       300 1.52222E+02 1.33333E+01 0.00000E+00
 -1       301 1.50000E+02 1.00000E+01 0.00000E+00
 -1       302 1.53333E+02 1.00000E+01 0.00000E+00
 -1       303 1.44444E+02 6.66668E+00 0.00000E+00
 -1       304 1.45556E+02 1.33333E+01 0.00000E+00
 -1       305 1.43333E+02 1.00000E+01 0.00000E+00
 -1       306 1.46667E+02 1.00000E+01 0.00000E+00
 -1       307 1.78960E+02 1.34223E+01 0.00000E+00
 -1       308 1.62222E+02 1.33335E+01 0.00000E+00
 -1       309 1.57778E+02 6.66671E+00 0.00000E+00
 -1       310 1.58889E+02 1.33334E+01 0.00000E+00
 -1       311 1.56667E+02 1.00000E+01 0.00000E+00
 -1       312 1.60000E+02 1.00001E+01 0.00000E+00
 -1       313 1.77832E+02 6.71452E+00 0.00000E+00
 -1       314 1.76703E+02 1.00354E+01 0.00000E+00
 -1       315 1.80089E+02 1.01014E+01 0.00000E+00
 -1       316 1.66667E+02 0.00000E+00 0.00000E+00
 -1       317 1.73333E+02 0.00000E+00 0.00000E+00
 -1       318 1.71116E+02 6.67209E+00 0.00000E+00
 -1       319 1.70000E+02 0.00000E+00 0.00000E+00
 -1       320 1.72225E+02 3.33604E+00 0.00000E+00
 -1       321 1.68891E+02 3.33604E+00 0.00000E+00
 -1       322 1.93333E+02 2.00000E+01 0.00000E+00
 -1       323 1.90000E+02 2.00000E+01 0.00000E+00
 -1       324 1.88237E+02 1.72338E+01 0.00000E+00
 -1       325 1.91570E+02 1.72338E+01 0.00000E+00
 -1       326 1.93333E+02 0.00000E+00 0.00000E+00
 -1       327 1.90000E+02 0.00000E+00 0.00000E+00
 -1       328 1.92844E+02 3.43178E+00 0.00000E+00
 -1       329 1.86076E+02 1.39779E+01 0.00000E+00
 -1       330 1.66667E+02 2.00000E+01 0.00000E+00
 -1       331 1.68892E+02 1.33369E+01 0.00000E+00
 -1       332 1.64444E+02 1.66667E+01 0.00000E+00
 -1       333 1.65557E+02 1.33352E+01 0.00000E+00
 -1       334 1.67779E+02 1.66685E+01 0.00000E+00
 -1       335 1.73345E+02 1.00142E+01 0.00000E+00
 -1       336 1.72233E+02 1.33466E+01 0.00000E+00
 -1       337 1.70004E+02 1.00045E+01 0.00000E+00
 -1       338 8.01693E+01 8.07455E+01 0.00000E+00
 -1       339 2.50129E+01 6.61432E+01 0.00000E+00
 -1       340 3.22485E+01 6.98756E+01 0.00000E+00
 -1       341 3.00904E+01 6.08009E+01 0.00000E+00
 -1       342 3.97421E+01 8.68040E+01 0.00000E+00
 -1       343 4.86523E+01 7.91625E+01 0.00000E+00
 -1       344 1.83533E+02 1.01690E+01 0.00000E+00
 -1       345 1.81276E+02 6.78210E+00 0.00000E+00
 -1       346 5.82055E+01 6.21455E+01 0.00000E+00
 -1       347 5.98837E+01 6.71039E+01 0.00000E+00
 -1       348 6.31736E+01 6.39211E+01 0.00000E+00
 -1       349 6.48518E+01 6.88795E+01 0.00000E+00
 -1       350 7.08271E+01 7.16530E+01 0.00000E+00
 -1       351 8.43250E+01 7.55792E+01 0.00000E+00
 -1       352 8.45963E+01 7.90761E+01 0.00000E+00
 -1       353 6.96452E+01 2.09128E+01 0.00000E+00
 -1       354 7.13317E+01 2.31457E+01 0.00000E+00
 -1       355 6.90267E+01 2.39202E+01 0.00000E+00
 -1       356 1.33333E+01 0.00000E+00 0.00000E+00
 -1       357 1.66667E+01 0.00000E+00 0.00000E+00
 -1       358 1.68088E+01 5.06241E+00 0.00000E+00
 -1       359 5.71132E+01 7.10591E+01 0.00000E+00
 -1       360 5.54350E+01 6.61007E+01 0.00000E+00
 -1       361 5.29589E+01 6.04543E+01 0.00000E+00
 -1       362 2.95030E+01 7.87478E+01 0.00000E+00
 -1       363 3.17538E+01 1.54341E+01 0.00000E+00
 -1       364 1.96032E+01 1.84795E+01 0.00000E+00
 -1       365 2.60190E+01 1.27794E+01 0.00000E+00
 -1       366 2.53380E+01 2.11341E+01 0.00000E+00
 -1       367 6.66667E+00 0.00000E+00 0.00000E+00
 -1       368 3.33333E+00 0.00000E+00 0.00000E+00
 -1       369 8.25089E+00 4.82630E+00 0.00000E+00
 -1       370 2.67198E+01 5.30907E+01 0.00000E+00
 -1       371 2.16422E+01 5.84330E+01 0.00000E+00
 -1       372 1.74474E+02 6.69330E+00 0.00000E+00
 -1       373 1.78916E+02 3.35726E+00 0.00000E+00
 -1       374 5.83834E+01 2.32413E+01 0.00000E+00
 -1       375 6.16721E+01 2.77854E+01 0.00000E+00
 -1       376 5.88636E+01 2.66921E+01 0.00000E+00
 -1       377 6.11919E+01 2.43347E+01 0.00000E+00
 -1       378 5.61893E+01 8.51559E+00 0.00000E+00
 -1       379 6.00000E+01 0.00000E+00 0.00000E+00
 -1       380 6.28700E+01 1.01592E+01 0.00000E+00
 -1       381 5.80946E+01 4.25779E+00 0.00000E+00
 -1       382 6.14350E+01 5.07962E+00 0.00000E+00
 -1       383 5.95297E+01 9.33742E+00 0.00000E+00
 -1       384 2.66667E+01 0.00000E+00 0.00000E+00
 -1       385 3.00000E+01 0.00000E+00 0.00000E+00
 -1       386 3.05619E+01 2.77408E+00 0.00000E+00
 -1       387 2.72286E+01 2.77408E+00 0.00000E+00
 -1       388 4.61545E+01 3.42706E+01 0.00000E+00
 -1       389 5.27282E+01 4.06016E+01 0.00000E+00
 -1       390 4.58442E+01 4.02024E+01 0.00000E+00
 -1       391 4.94413E+01 3.74361E+01 0.00000E+00
 -1       392 4.91311E+01 4.33679E+01 0.00000E+00
 -1       393 6.67038E+01 4.14216E+01 0.00000E+00
 -1       394 6.51868E+01 4.33667E+01 0.00000E+00
 -1       395 6.85366E+01 4.33643E+01 0.00000E+00
 -1       396 5.44017E+01 3.43273E+01 0.00000E+00
 -1       397 5.02781E+01 3.42989E+01 0.00000E+00
 -1       398 5.35649E+01 3.74644E+01 0.00000E+00
 -1       399 2.77784E+01 2.68829E+01 0.00000E+00
 -1       400 3.41942E+01 2.11829E+01 0.00000E+00
 -1       401 4.76860E+01 1.60883E+01 0.00000E+00
 -1       402 4.70658E+01 2.00837E+01 0.00000E+00
 -1       403 4.43533E+01 1.73667E+01 0.00000E+00
 -1       404 5.29347E+01 2.77641E+01 0.00000E+00
 -1       405 5.68727E+01 3.22351E+01 0.00000E+00
 -1       406 5.36682E+01 3.10457E+01 0.00000E+00
 -1       407 5.61392E+01 2.89535E+01 0.00000E+00
 -1       408 5.27820E+01 2.02875E+01 0.00000E+00
 -1       409 5.02340E+01 1.81879E+01 0.00000E+00
 -1       410 4.96139E+01 2.21833E+01 0.00000E+00
 -1       411 3.13367E+01 6.04029E+00 0.00000E+00
 -1       412 5.29563E+01 1.41863E+01 0.00000E+00
 -1       413 4.97020E+01 8.87426E+00 0.00000E+00
 -1       414 5.45728E+01 1.13510E+01 0.00000E+00
 -1       415 5.13291E+01 1.15303E+01 0.00000E+00
 -1       416 5.29456E+01 8.69492E+00 0.00000E+00
 -1       417 4.95446E+01 3.10173E+01 0.00000E+00
 -1       418 7.99172E+01 2.20658E+01 0.00000E+00
 -1       419 8.01574E+01 1.75826E+01 0.00000E+00
 -1       420 5.33333E+01 0.00000E+00 0.00000E+00
 -1       421 5.66667E+01 0.00000E+00 0.00000E+00
 -1       422 5.47613E+01 4.25779E+00 0.00000E+00
 -1       423 5.15177E+01 4.43713E+00 0.00000E+00
 -1       424 6.86649E+01 9.40267E+00 0.00000E+00
 -1       425 6.77542E+01 1.58682E+01 0.00000E+00
 -1       426 6.57675E+01 9.78096E+00 0.00000E+00
 -1       427 6.82096E+01 1.26355E+01 0.00000E+00
 -1       428 6.53121E+01 1.30137E+01 0.00000E+00
 -1       429 6.66667E+01 0.00000E+00 0.00000E+00
 -1       430 6.33333E+01 0.00000E+00 0.00000E+00
 -1       431 6.47684E+01 5.07962E+00 0.00000E+00
 -1       432 6.06993E+01 2.11245E+01 0.00000E+00
 -1       433 6.98522E+01 1.80033E+01 0.00000E+00
 -1       434 7.03312E+01 1.47217E+01 0.00000E+00
 -1       435 1.14443E+02 6.71042E+00 0.00000E+00
 -1       436 7.33333E+01 0.00000E+00 0.00000E+00
 -1       437 7.33350E+01 5.70975E+00 0.00000E+00
 -1       438 7.00000E+01 0.00000E+00 0.00000E+00
 -1       439 7.33342E+01 2.85488E+00 0.00000E+00
 -1       440 7.00008E+01 2.85488E+00 0.00000E+00
 -1       441 6.76658E+01 4.70133E+00 0.00000E+00
 -1       442 7.40898E+01 2.19722E+01 0.00000E+00
 -1       443 7.68487E+01 2.11041E+01 0.00000E+00
 -1       444 7.10000E+01 7.55621E+00 0.00000E+00
 -1       445 8.54083E+01 1.59834E+01 0.00000E+00
 -1       446 7.79772E+01 1.44399E+01 0.00000E+00
 -1       447 7.56973E+01 1.20264E+01 0.00000E+00
 -1       448 8.06666E+01 1.36203E+01 0.00000E+00
 -1       449 9.33333E+01 0.00000E+00 0.00000E+00
 -1       450 9.00000E+01 0.00000E+00 0.00000E+00
 -1       451 9.18843E+01 3.80989E+00 0.00000E+00
 -1       452 8.33333E+01 0.00000E+00 0.00000E+00
 -1       453 8.36153E+01 1.25123E+01 0.00000E+00
 -1       454 9.29966E+01 2.08289E+01 0.00000E+00
 -1       455 9.19678E+01 1.80310E+01 0.00000E+00
 -1       456 9.42566E+01 1.74816E+01 0.00000E+00
 -1       457 1.07758E+02 6.87965E+00 0.00000E+00
 -1       458 9.54421E+01 1.49992E+01 0.00000E+00
 -1       459 9.66667E+01 0.00000E+00 0.00000E+00
 -1       460 9.86631E+01 4.13206E+00 0.00000E+00
 -1       461 9.53298E+01 4.13206E+00 0.00000E+00
 -1       462 1.21111E+02 6.67509E+00 0.00000E+00
 -1       463 9.98988E+01 1.10878E+01 0.00000E+00
 -1       464 1.00866E+02 7.64174E+00 0.00000E+00
 -1       465 1.27778E+02 6.66820E+00 0.00000E+00
 -1       466 1.13333E+02 0.00000E+00 0.00000E+00
 -1       467 1.10000E+02 0.00000E+00 0.00000E+00
 -1       468 1.12221E+02 3.36997E+00 0.00000E+00
 -1       469 1.08888E+02 3.36997E+00 0.00000E+00
 -1       470 1.34444E+02 6.66693E+00 0.00000E+00
 -1       471 1.20000E+02 0.00000E+00 0.00000E+00
 -1       472 1.16667E+02 0.00000E+00 0.00000E+00
 -1       473 1.18889E+02 3.34045E+00 0.00000E+00
 -1       474 1.15556E+02 3.34045E+00 0.00000E+00
 -1       475 1.41111E+02 6.66671E+00 0.00000E+00
 -1       476 1.26667E+02 0.00000E+00 0.00000E+00
 -1       477 1.23333E+02 0.00000E+00 0.00000E+00
 -1       478 1.25556E+02 3.33464E+00 0.00000E+00
 -1       479 1.22222E+02 3.33464E+00 0.00000E+00
 -1       480 1.47778E+02 6.66667E+00 0.00000E+00
 -1       481 1.33333E+02 0.00000E+00 0.00000E+00
 -1       482 1.30000E+02 0.00000E+00 0.00000E+00
 -1       483 1.32222E+02 3.33356E+00 0.00000E+00
 -1       484 1.28889E+02 3.33356E+00 0.00000E+00
 -1       485 1.54444E+02 6.66669E+00 0.00000E+00
 -1       486 1.40000E+02 0.00000E+00 0.00000E+00
 -1       487 1.36667E+02 0.00000E+00 0.00000E+00
 -1       488 1.38889E+02 3.33337E+00 0.00000E+00
 -1       489 1.35556E+02 3.33337E+00 0.00000E+00
 -1       490 1.53333E+02 0.00000E+00 0.00000E+00
 -1       491 1.60000E+02 0.00000E+00 0.00000E+00
 -1       492 1.56667E+02 0.00000E+00 0.00000E+00
 -1       493 1.58889E+02 3.33336E+00 0.00000E+00
 -1       494 1.55556E+02 3.33336E+00 0.00000E+00
 -1       495 1.61111E+02 1.66667E+01 0.00000E+00
 -1       496 1.46667E+02 0.00000E+00 0.00000E+00
 -1       497 1.43333E+02 0.00000E+00 0.00000E+00
 -1       498 1.45556E+02 3.33334E+00 0.00000E+00
 -1       499 1.42222E+02 3.33334E+00 0.00000E+00
 -1       500 1.63333E+02 2.00000E+01 0.00000E+00
 -1       501 1.64445E+02 6.66777E+00 0.00000E+00
 -1       502 1.66669E+02 1.00023E+01 0.00000E+00
 -1       503 1.67781E+02 6.66993E+00 0.00000E+00
 -1       504 1.50000E+02 0.00000E+00 0.00000E+00
 -1       505 1.52222E+02 3.33334E+00 0.00000E+00
 -1       506 1.48889E+02 3.33334E+00 0.00000E+00
 -1       507 1.65556E+02 3.33388E+00 0.00000E+00
 -1       508 1.63334E+02 1.00006E+01 0.00000E+00
 -1       509 1.61112E+02 6.66724E+00 0.00000E+00
 -1       510 1.70000E+02 2.00000E+01 0.00000E+00
 -1       511 1.71113E+02 1.66685E+01 0.00000E+00
 -1       512 1.63333E+02 0.00000E+00 0.00000E+00
 -1       513 1.62223E+02 3.33388E+00 0.00000E+00
 -1       514 1.76667E+02 0.00000E+00 0.00000E+00
 -1       515 1.75583E+02 3.35726E+00 0.00000E+00
 -1       516 2.00000E+02 0.00000E+00 0.00000E+00
 -1       517 1.96667E+02 0.00000E+00 0.00000E+00
 -1       518 1.96177E+02 3.43178E+00 0.00000E+00
 -1       519 2.00000E+02 2.00000E+01 0.00000E+00
 -1       520 1.96667E+02 2.00000E+01 0.00000E+00
 -1       521 1.94903E+02 1.72338E+01 0.00000E+00
 -1       522 2.00000E+02 1.00000E+01 0.00000E+00
 -1       523 1.96177E+02 1.34318E+01 0.00000E+00
 -1       524 7.08289E+01 4.29966E+01 0.00000E+00
 -1       525 6.90860E+01 4.10756E+01 0.00000E+00
 -1       526 6.22141E+01 4.20345E+01 0.00000E+00
 -1       527 6.37311E+01 4.00895E+01 0.00000E+00
 -1       528 1.25728E+01 6.80860E+01 0.00000E+00
 -1       529 1.54222E+01 5.94044E+01 0.00000E+00
 -1       530 6.28642E+00 6.40430E+01 0.00000E+00
 -1       531 1.87928E+01 6.71146E+01 0.00000E+00
 -1       532 7.00000E+01 5.00000E+01 0.00000E+00
 -1       533 7.00925E+01 5.23538E+01 0.00000E+00
 -1       534 6.79618E+01 5.02059E+01 0.00000E+00
 -1       535 7.00925E+01 4.76462E+01 0.00000E+00
 -1       536 7.22836E+01 6.14805E+01 0.00000E+00
 -1       537 6.98050E+01 6.24836E+01 0.00000E+00
 -1       538 1.00000E+01 0.00000E+00 0.00000E+00
 -1       539 1.15842E+01 4.82630E+00 0.00000E+00
 -1       540 1.50597E+01 9.88871E+00 0.00000E+00
 -1       541 3.43862E+01 4.77545E+01 0.00000E+00
 -1       542 4.63001E+01 2.91748E+01 0.00000E+00
 -1       543 4.13945E+01 3.06012E+01 0.00000E+00
 -1       544 5.03211E+01 1.51373E+01 0.00000E+00
 -1       545 5.28691E+01 1.72369E+01 0.00000E+00
 -1       546 5.56591E+01 2.55027E+01 0.00000E+00
 -1       547 6.14820E+01 5.95969E+01 0.00000E+00
 -1       548 5.76551E+01 5.60031E+01 0.00000E+00
 -1       549 6.09315E+01 5.34544E+01 0.00000E+00
 -1       550 5.00000E+01 0.00000E+00 0.00000E+00
 -1       551 4.97870E+01 1.94712E+00 0.00000E+00
 -1       552 4.79713E+01 6.38425E+00 0.00000E+00
 -1       553 6.73568E+01 2.57906E+01 0.00000E+00
 -1       554 6.82087E+01 2.88172E+01 0.00000E+00
 -1       555 6.48523E+01 2.84547E+01 0.00000E+00
 -1       556 3.98794E+01 3.71604E+01 0.00000E+00
 -1       557 3.51195E+01 3.34910E+01 0.00000E+00
 -1       558 6.68924E+01 3.41025E+01 0.00000E+00
 -1       559 6.44195E+01 3.77406E+01 0.00000E+00
 -1       560 7.71878E+01 3.05166E+01 0.00000E+00
 -1       561 7.53768E+01 3.03521E+01 0.00000E+00
 -1       562 7.13400E+01 2.90353E+01 0.00000E+00
 -1       563 7.66667E+01 0.00000E+00 0.00000E+00
 -1       564 7.66675E+01 2.85488E+00 0.00000E+00
 -1       565 7.59107E+01 8.09371E+00 0.00000E+00
 -1       566 9.75021E+01 1.18344E+01 0.00000E+00
 -1       567 7.31216E+01 9.64247E+00 0.00000E+00
 -1       568 7.07866E+01 1.14889E+01 0.00000E+00
 -1       569 0.00000E+00 7.00000E+01 0.00000E+00
 -1       570 6.28642E+00 7.40430E+01 0.00000E+00
 -1       571 1.60474E+01 7.59868E+01 0.00000E+00
 -1       572 5.52424E+01 7.73864E+01 0.00000E+00
 -1       573 1.43786E+01 1.82433E+01 0.00000E+00
 -1       574 3.95692E+01 4.30922E+01 0.00000E+00
 -1       575 5.77470E+01 1.60210E+01 0.00000E+00
 -1       576 6.03085E+01 1.30901E+01 0.00000E+00
 -1       577 5.69681E+01 1.22683E+01 0.00000E+00
 -1       578 6.29425E+01 1.45835E+01 0.00000E+00
 -1       579 6.53846E+01 1.74380E+01 0.00000E+00
 -1       580 6.88355E+01 3.16994E+01 0.00000E+00
 -1       581 6.03872E+01 4.75862E+01 0.00000E+00
 -1       582 5.89315E+01 4.43090E+01 0.00000E+00
 -1       583 4.96902E+01 2.59216E+01 0.00000E+00