    1C
    1UUSER                                                              
    1UDATE              30.march.2022                                   
    1UTIME              09:58:43                                        
    1UHOST                                                              
    1UPGM               CalculiX                                        
    1UVERSION           Version 2.19                             
    1UCOMPILETIME       Wed Mar 30 06:04:19 EDT 2022                    
    1UDIR                                                               
    1UDBN                                                               
    1UMAT    1STEEL                                                     
    2C                           240                                     1
 -1         1 0.00000E+00 1.00000E+01 0.00000E+00
 -1         2 0.00000E+00 5.00000E+00 0.00000E+00
 -1         3 5.00000E+00 5.00000E+00 0.00000E+00
 -1         4 5.00000E+00 1.00000E+01 0.00000E+00
 -1         5 1.00000E+01 5.00000E+00 0.00000E+00
 -1         6 1.00000E+01 1.00000E+01 0.00000E+00
 -1         7 1.50000E+01 5.00000E+00 0.00000E+00
 -1         8 1.50000E+01 1.00000E+01 0.00000E+00
 -1         9 2.00000E+01 5.00000E+00 0.00000E+00
 -1        10 2.00000E+01 1.00000E+01 0.00000E+00
 -1        11 2.50000E+01 5.00000E+00 0.00000E+00
 -1        12 2.50000E+01 1.00000E+01 0.00000E+00
 -1        13 3.00000E+01 5.00000E+00 0.00000E+00
 -1        14 3.00000E+01 1.00000E+01 0.00000E+00
 -1        15 3.50000E+01 5.00000E+00 0.00000E+00
 -1        16 3.50000E+01 1.00000E+01 0.00000E+00
 -1        17 4.00000E+01 5.00000E+00 0.00000E+00
 -1        18 4.00000E+01 1.00000E+01 0.00000E+00
 -1        19 0.00000E+00 0.00000E+00 0.00000E+00
 -1        20 5.00000E+00 0.00000E+00 0.00000E+00
 -1        21 1.00000E+01 0.00000E+00 0.00000E+00
 -1        22 1.50000E+01 0.00000E+00 0.00000E+00
 -1        23 2.00000E+01 0.00000E+00 0.00000E+00
 -1        24 2.50000E+01 0.00000E+00 0.00000E+00
 -1        25 3.00000E+01 0.00000E+00 0.00000E+00
 -1        26 3.50000E+01 0.00000E+00 0.00000E+00
 -1        27 4.00000E+01 0.00000E+00 0.00000E+00
 -1        28 0.00000E+00 1.00000E+01 0.00000E+00
 -1        29 0.00000E+00 0.00000E+00 0.00000E+00
 -1        30 1.00000E+01 0.00000E+00 0.00000E+00
 -1        31 1.00000E+01 1.00000E+01 0.00000E+00
 -1        32 0.00000E+00 5.00000E+00 0.00000E+00
 -1        33 5.00000E+00 0.00000E+00 0.00000E+00
 -1        34 1.00000E+01 5.00000E+00 0.00000E+00
 -1        35 5.00000E+00 1.00000E+01 0.00000E+00
 -1        36 2.00000E+01 0.00000E+00 0.00000E+00
 -1        37 2.00000E+01 1.00000E+01 0.00000E+00
 -1        38 1.50000E+01 0.00000E+00 0.00000E+00
 -1        39 2.00000E+01 5.00000E+00 0.00000E+00
 -1        40 1.50000E+01 1.00000E+01 0.00000E+00
 -1        41 3.00000E+01 0.00000E+00 0.00000E+00
 -1        42 3.00000E+01 1.00000E+01 0.00000E+00
 -1        43 2.50000E+01 0.00000E+00 0.00000E+00
 -1        44 3.00000E+01 5.00000E+00 0.00000E+00
 -1        45 2.50000E+01 1.00000E+01 0.00000E+00
 -1        46 4.00000E+01 0.00000E+00 0.00000E+00
 -1        47 4.00000E+01 1.00000E+01 0.00000E+00
 -1        48 3.50000E+01 0.00000E+00 0.00000E+00
 -1        49 4.00000E+01 5.00000E+00 0.00000E+00
 -1        50 3.50000E+01 1.00000E+01 0.00000E+00
 -1        51 0.00000E+00 1.00000E+01 0.00000E+00
 -1        52 0.00000E+00 5.00000E+00 0.00000E+00
 -1        53 5.00000E+00 1.00000E+01 0.00000E+00
 -1        54 5.00000E+00 5.00000E+00 0.00000E+00
 -1        55 1.00000E+01 1.00000E+01 0.00000E+00
 -1        56 1.00000E+01 5.00000E+00 0.00000E+00
 -1        57 1.50000E+01 1.00000E+01 0.00000E+00
 -1        58 1.50000E+01 5.00000E+00 0.00000E+00
 -1        59 2.00000E+01 1.00000E+01 0.00000E+00
 -1        60 2.00000E+01 5.00000E+00 0.00000E+00
 -1        61 2.50000E+01 1.00000E+01 0.00000E+00
 -1        62 2.50000E+01 5.00000E+00 0.00000E+00
 -1        63 3.00000E+01 1.00000E+01 0.00000E+00
 -1        64 3.00000E+01 5.00000E+00 0.00000E+00
 -1        65 3.50000E+01 1.00000E+01 0.00000E+00
 -1        66 3.50000E+01 5.00000E+00 0.00000E+00
 -1        67 4.00000E+01 1.00000E+01 0.00000E+00
 -1        68 4.00000E+01 5.00000E+00 0.00000E+00
 -1        69 0.00000E+00 0.00000E+00 0.00000E+00
 -1        70 5.00000E+00 0.00000E+00 0.00000E+00
 -1        71 1.00000E+01 0.00000E+00 0.00000E+00
 -1        72 1.50000E+01 0.00000E+00 0.00000E+00
 -1        73 2.00000E+01 0.00000E+00 0.00000E+00
 -1        74 2.50000E+01 0.00000E+00 0.00000E+00
 -1        75 3.00000E+01 0.00000E+00 0.00000E+00
 -1        76 3.50000E+01 0.00000E+00 0.00000E+00
 -1        77 4.00000E+01 0.00000E+00 0.00000E+00
 -1        78 0.00000E+00 1.00000E+01 0.00000E+00
 -1        79 0.00000E+00 0.00000E+00 0.00000E+00
 -1        80 1.00000E+01 1.00000E+01 0.00000E+00
 -1        81 0.00000E+00 5.00000E+00 0.00000E+00
 -1        82 5.00000E+00 5.00000E+00 0.00000E+00
 -1        83 5.00000E+00 1.00000E+01 0.00000E+00
 -1        84 1.00000E+01 0.00000E+00 0.00000E+00
 -1        85 5.00000E+00 0.00000E+00 0.00000E+00
 -1        86 1.00000E+01 5.00000E+00 0.00000E+00
 -1        87 2.00000E+01 1.00000E+01 0.00000E+00
 -1        88 1.50000E+01 5.00000E+00 0.00000E+00
 -1        89 1.50000E+01 1.00000E+01 0.00000E+00
 -1        90 2.00000E+01 0.00000E+00 0.00000E+00
 -1        91 1.50000E+01 0.00000E+00 0.00000E+00
 -1        92 2.00000E+01 5.00000E+00 0.00000E+00
 -1        93 3.00000E+01 1.00000E+01 0.00000E+00
 -1        94 2.50000E+01 5.00000E+00 0.00000E+00
 -1        95 2.50000E+01 1.00000E+01 0.00000E+00
 -1        96 3.00000E+01 0.00000E+00 0.00000E+00
 -1        97 2.50000E+01 0.00000E+00 0.00000E+00
 -1        98 3.00000E+01 5.00000E+00 0.00000E+00
 -1        99 4.00000E+01 1.00000E+01 0.00000E+00
 -1       100 3.50000E+01 5.00000E+00 0.00000E+00
 -1       101 3.50000E+01 1.00000E+01 0.00000E+00
 -1       102 4.00000E+01 0.00000E+00 0.00000E+00
 -1       103 3.50000E+01 0.00000E+00 0.00000E+00
 -1       104 4.00000E+01 5.00000E+00 0.00000E+00
 -1       105 5.00000E+00 1.00000E+01 0.00000E+00
 -1       106 5.00000E+00 5.00000E+00 0.00000E+00
 -1       107 1.00000E+01 1.00000E+01 0.00000E+00
 -1       108 1.00000E+01 5.00000E+00 0.00000E+00
 -1       109 1.50000E+01 1.00000E+01 0.00000E+00
 -1       110 1.50000E+01 5.00000E+00 0.00000E+00
 -1       111 2.00000E+01 1.00000E+01 0.00000E+00
 -1       112 2.00000E+01 5.00000E+00 0.00000E+00
 -1       113 2.50000E+01 1.00000E+01 0.00000E+00
 -1       114 2.50000E+01 5.00000E+00 0.00000E+00
 -1       115 3.00000E+01 1.00000E+01 0.00000E+00
 -1       116 3.00000E+01 5.00000E+00 0.00000E+00
 -1       117 3.50000E+01 1.00000E+01 0.00000E+00
 -1       118 3.50000E+01 5.00000E+00 0.00000E+00
 -1       119 0.00000E+00 5.00000E+00 0.00000E+00
 -1       120 5.00000E+00 5.00000E+00 0.00000E+00
 -1       121 5.00000E+00 5.00000E+00 0.00000E+00
 -1       122 5.00000E+00 0.00000E+00 0.00000E+00
 -1       123 1.00000E+01 5.00000E+00 0.00000E+00
 -1       124 1.00000E+01 5.00000E+00 0.00000E+00
 -1       125 1.00000E+01 0.00000E+00 0.00000E+00
 -1       126 1.50000E+01 5.00000E+00 0.00000E+00
 -1       127 1.50000E+01 5.00000E+00 0.00000E+00
 -1       128 1.50000E+01 0.00000E+00 0.00000E+00
 -1       129 2.00000E+01 5.00000E+00 0.00000E+00
 -1       130 2.00000E+01 5.00000E+00 0.00000E+00
 -1       131 2.00000E+01 0.00000E+00 0.00000E+00
 -1       132 2.50000E+01 5.00000E+00 0.00000E+00
 -1       133 2.50000E+01 5.00000E+00 0.00000E+00
 -1       134 2.50000E+01 0.00000E+00 0.00000E+00
 -1       135 3.00000E+01 5.00000E+00 0.00000E+00
 -1       136 3.00000E+01 5.00000E+00 0.00000E+00
 -1       137 3.00000E+01 0.00000E+00 0.00000E+00
 -1       138 3.50000E+01 5.00000E+00 0.00000E+00
 -1       139 3.50000E+01 5.00000E+00 0.00000E+00
 -1       140 3.50000E+01 0.00000E+00 0.00000E+00
 -1       141 4.00000E+01 5.00000E+00 0.00000E+00
 -1       142 1.00000E+01 1.00000E+01 0.00000E+00
 -1       143 1.00000E+01 0.00000E+00 0.00000E+00
 -1       144 1.00000E+01 5.00000E+00 0.00000E+00
 -1       145 2.00000E+01 1.00000E+01 0.00000E+00
 -1       146 2.00000E+01 0.00000E+00 0.00000E+00
 -1       147 2.00000E+01 5.00000E+00 0.00000E+00
 -1       148 3.00000E+01 1.00000E+01 0.00000E+00
 -1       149 3.00000E+01 0.00000E+00 0.00000E+00
 -1       150 3.00000E+01 5.00000E+00 0.00000E+00
 -1       151 5.00000E+00 1.00000E+01 0.00000E+00
 -1       152 0.00000E+00 5.00000E+00 0.00000E+00
 -1       153 5.00000E+00 1.00000E+01 0.00000E+00
 -1       154 5.00000E+00 5.00000E+00 0.00000E+00
 -1       155 1.00000E+01 1.00000E+01 0.00000E+00
 -1       156 5.00000E+00 5.00000E+00 0.00000E+00
 -1       157 1.00000E+01 1.00000E+01 0.00000E+00
 -1       158 1.00000E+01 5.00000E+00 0.00000E+00
 -1       159 1.50000E+01 1.00000E+01 0.00000E+00
 -1       160 1.00000E+01 5.00000E+00 0.00000E+00
 -1       161 1.50000E+01 1.00000E+01 0.00000E+00
 -1       162 1.50000E+01 5.00000E+00 0.00000E+00
 -1       163 2.00000E+01 1.00000E+01 0.00000E+00
 -1       164 1.50000E+01 5.00000E+00 0.00000E+00
 -1       165 2.00000E+01 1.00000E+01 0.00000E+00
 -1       166 2.00000E+01 5.00000E+00 0.00000E+00
 -1       167 2.50000E+01 1.00000E+01 0.00000E+00
 -1       168 2.00000E+01 5.00000E+00 0.00000E+00
 -1       169 2.50000E+01 1.00000E+01 0.00000E+00
 -1       170 2.50000E+01 5.00000E+00 0.00000E+00
 -1       171 3.00000E+01 1.00000E+01 0.00000E+00
 -1       172 2.50000E+01 5.00000E+00 0.00000E+00
 -1       173 3.00000E+01 1.00000E+01 0.00000E+00
 -1       174 3.00000E+01 5.00000E+00 0.00000E+00
 -1       175 3.50000E+01 1.00000E+01 0.00000E+00
 -1       176 3.00000E+01 5.00000E+00 0.00000E+00
 -1       177 3.50000E+01 1.00000E+01 0.00000E+00
 -1       178 3.50000E+01 5.00000E+00 0.00000E+00
 -1       179 4.00000E+01 1.00000E+01 0.00000E+00
 -1       180 3.50000E+01 5.00000E+00 0.00000E+00
 -1       181 0.00000E+00 5.00000E+00 0.00000E+00
 -1       182 5.00000E+00 5.00000E+00 0.00000E+00
 -1       183 5.00000E+00 5.00000E+00 0.00000E+00
 -1       184 0.00000E+00 0.00000E+00 0.00000E+00
 -1       185 5.00000E+00 5.00000E+00 0.00000E+00
 -1       186 5.00000E+00 0.00000E+00 0.00000E+00
 -1       187 1.00000E+01 5.00000E+00 0.00000E+00
 -1       188 1.00000E+01 5.00000E+00 0.00000E+00
 -1       189 5.00000E+00 0.00000E+00 0.00000E+00
 -1       190 1.00000E+01 5.00000E+00 0.00000E+00
 -1       191 1.00000E+01 0.00000E+00 0.00000E+00
 -1       192 1.50000E+01 5.00000E+00 0.00000E+00
 -1       193 1.50000E+01 5.00000E+00 0.00000E+00
 -1       194 1.00000E+01 0.00000E+00 0.00000E+00
 -1       195 1.50000E+01 5.00000E+00 0.00000E+00
 -1       196 1.50000E+01 0.00000E+00 0.00000E+00
 -1       197 2.00000E+01 5.00000E+00 0.00000E+00
 -1       198 2.00000E+01 5.00000E+00 0.00000E+00
 -1       199 1.50000E+01 0.00000E+00 0.00000E+00
 -1       200 2.00000E+01 5.00000E+00 0.00000E+00
 -1       201 2.00000E+01 0.00000E+00 0.00000E+00
 -1       202 2.50000E+01 5.00000E+00 0.00000E+00
 -1       203 2.50000E+01 5.00000E+00 0.00000E+00
 -1       204 2.00000E+01 0.00000E+00 0.00000E+00
 -1       205 2.50000E+01 5.00000E+00 0.00000E+00
 -1       206 2.50000E+01 0.00000E+00 0.00000E+00
 -1       207 3.00000E+01 5.00000E+00 0.00000E+00
 -1       208 3.00000E+01 5.00000E+00 0.00000E+00
 -1       209 2.50000E+01 0.00000E+00 0.00000E+00
 -1       210 3.00000E+01 5.00000E+00 0.00000E+00
 -1       211 3.00000E+01 0.00000E+00 0.00000E+00
 -1       212 3.50000E+01 5.00000E+00 0.00000E+00
 -1       213 3.50000E+01 5.00000E+00 0.00000E+00
 -1       214 3.00000E+01 0.00000E+00 0.00000E+00
 -1       215 3.50000E+01 5.00000E+00 0.00000E+00
 -1       216 3.50000E+01 0.00000E+00 0.00000E+00
 -1       217 4.00000E+01 5.00000E+00 0.00000E+00
 -1       218 4.00000E+01 5.00000E+00 0.00000E+00
 -1       219 3.50000E+01 0.00000E+00 0.00000E+00
 -1       220 1.00000E+01 1.00000E+01 0.00000E+00
 -1       221 0.00000E+00 0.00000E+00 0.00000E+00
 -1       222 5.00000E+00 5.00000E+00 0.00000E+00
 -1       223 1.00000E+01 1.00000E+01 0.00000E+00
 -1       224 1.00000E+01 0.00000E+00 0.00000E+00
 -1       225 1.00000E+01 5.00000E+00 0.00000E+00
 -1       226 2.00000E+01 1.00000E+01 0.00000E+00
 -1       227 1.00000E+01 0.00000E+00 0.00000E+00
 -1       228 1.50000E+01 5.00000E+00 0.00000E+00
 -1       229 2.00000E+01 1.00000E+01 0.00000E+00
 -1       230 2.00000E+01 0.00000E+00 0.00000E+00
 -1       231 2.00000E+01 5.00000E+00 0.00000E+00
 -1       232 3.00000E+01 1.00000E+01 0.00000E+00
 -1       233 2.00000E+01 0.00000E+00 0.00000E+00
 -1       234 2.50000E+01 5.00000E+00 0.00000E+00
 -1       235 3.00000E+01 1.00000E+01 0.00000E+00
 -1       236 3.00000E+01 0.00000E+00 0.00000E+00
 -1       237 3.00000E+01 5.00000E+00 0.00000E+00
 -1       238 4.00000E+01 1.00000E+01 0.00000E+00
 -1       239 3.00000E+01 0.00000E+00 0.00000E+00
 -1       240 3.50000E+01 5.00000E+00 0.00000E+00
 -3
    3C                            60                                     1
 -1         1    9    0    1
 -2         1         2         3         4
 -1         2    9    0    1
 -2       105       106         5         6
 -1         3    9    0    1
 -2       107       108         7         8
 -1         4    9    0    1
 -2       109       110         9        10
 -1         5    9    0    1
 -2       111       112        11        12
 -1         6    9    0    1
 -2       113       114        13        14
 -1         7    9    0    1
 -2       115       116        15        16
 -1         8    9    0    1
 -2       117       118        17        18
 -1         9    9    0    1
 -2       119        19        20       120
 -1        10    9    0    1
 -2       121       122        21       123
 -1        11    9    0    1
 -2       124       125        22       126
 -1        12    9    0    1
 -2       127       128        23       129
 -1        13    9    0    1
 -2       130       131        24       132
 -1        14    9    0    1
 -2       133       134        25       135
 -1        15    9    0    1
 -2       136       137        26       138
 -1        16    9    0    1
 -2       139       140        27       141
 -1        17   10    0    1
 -2        28        29        30        31        32        33        34        35
 -1        18   10    0    1
 -2       142       143        36        37       144        38        39        40
 -1        19   10    0    1
 -2       145       146        41        42       147        43        44        45
 -1        20   10    0    1
 -2       148       149        46        47       150        48        49        50
 -1        21    7    0    1
 -2        51        52        53
 -1        22    7    0    1
 -2       151       152        54
 -1        23    7    0    1
 -2       153       154        55
 -1        24    7    0    1
 -2       155       156        56
 -1        25    7    0    1
 -2       157       158        57
 -1        26    7    0    1
 -2       159       160        58
 -1        27    7    0    1
 -2       161       162        59
 -1        28    7    0    1
 -2       163       164        60
 -1        29    7    0    1
 -2       165       166        61
 -1        30    7    0    1
 -2       167       168        62
 -1        31    7    0    1
 -2       169       170        63
 -1        32    7    0    1
 -2       171       172        64
 -1        33    7    0    1
 -2       173       174        65
 -1        34    7    0    1
 -2       175       176        66
 -1        35    7    0    1
 -2       177       178        67
 -1        36    7    0    1
 -2       179       180        68
 -1        37    7    0    1
 -2       181        69       182
 -1        38    7    0    1
 -2       183       184        70
 -1        39    7    0    1
 -2       185       186       187
 -1        40    7    0    1
 -2       188       189        71
 -1        41    7    0    1
 -2       190       191       192
 -1        42    7    0    1
 -2       193       194        72
 -1        43    7    0    1
 -2       195       196       197
 -1        44    7    0    1
 -2       198       199        73
 -1        45    7    0    1
 -2       200       201       202
 -1        46    7    0    1
 -2       203       204        74
 -1        47    7    0    1
 -2       205       206       207
 -1        48    7    0    1
 -2       208       209        75
 -1        49    7    0    1
 -2       210       211       212
 -1        50    7    0    1
 -2       213       214        76
 -1        51    7    0    1
 -2       215       216       217
 -1        52    7    0    1
 -2       218       219        77
 -1        53    8    0    1
 -2        78        79        80        81        82        83
 -1        54    8    0    1
 -2       220       221        84       222        85        86
 -1        55    8    0    1
 -2       223       224        87       225        88        89
 -1        56    8    0    1
 -2       226       227        90       228        91        92
 -1        57    8    0    1
 -2       229       230        93       231        94        95
 -1        58    8    0    1
 -2       232       233        96       234        97        98
 -1        59    8    0    1
 -2       235       236        99       237       100       101
 -1        60    8    0    1
 -2       238       239       102       240       103       104
 -3
    1PSTEP                         1           1           1          
  100CL  101 1.000000000         240                     0    1           1
 -4  DISP        4    1
 -5  D1          1    2    1    0
 -5  D2          1    2    2    0
 -5  D3          1    2    3    0
 -5  ALL         1    2    0    0    1ALL
 -1         1 0.00000E+00 0.00000E+00 0.00000E+00
 -1         2 0.00000E+00 0.00000E+00 0.00000E+00
 -1         3 5.07577E-07-5.93656E-04 0.00000E+00
 -1         4 8.78405E-04-7.58129E-04 0.00000E+00
 -1         5 5.46323E-06-2.04472E-03 0.00000E+00
 -1         6 1.56495E-03-2.14399E-03 0.00000E+00
 -1         7 9.14459E-06-4.02808E-03 0.00000E+00
 -1         8 2.05584E-03-4.10698E-03 0.00000E+00
 -1         9 1.26899E-05-6.39001E-03 0.00000E+00
 -1        10 2.38861E-03-6.44629E-03 0.00000E+00
 -1        11 1.62581E-05-8.98333E-03 0.00000E+00
 -1        12 2.59380E-03-9.02310E-03 0.00000E+00
 -1        13 1.98300E-05-1.16973E-02 0.00000E+00
 -1        14 2.70349E-03-1.17251E-02 0.00000E+00
 -1        15 2.34015E-05-1.44522E-02 0.00000E+00
 -1        16 2.74949E-03-1.44728E-02 0.00000E+00
 -1        17 2.69730E-05-1.72002E-02 0.00000E+00
 -1        18 2.76365E-03-1.72185E-02 0.00000E+00
 -1        19 0.00000E+00 0.00000E+00 0.00000E+00
 -1        20-8.72060E-04-7.33595E-04 0.00000E+00
 -1        21-1.55385E-03-2.11965E-03 0.00000E+00
 -1        22-2.03766E-03-4.08317E-03 0.00000E+00
 -1        23-2.36324E-03-6.42250E-03 0.00000E+00
 -1        24-2.56128E-03-8.99930E-03 0.00000E+00
 -1        25-2.66383E-03-1.17013E-02 0.00000E+00
 -1        26-2.70268E-03-1.44490E-02 0.00000E+00
 -1        27-2.70970E-03-1.71947E-02 0.00000E+00
 -1        28 0.00000E+00 0.00000E+00-1.18585E-20
 -1        29 0.00000E+00 0.00000E+00 1.52466E-20
 -1        30-1.68466E-03-2.33440E-03-1.27055E-20
 -1        31 1.69758E-03-2.35523E-03 1.18585E-20
 -1        32 0.00000E+00 0.00000E+00 8.33480E-19
 -1        33-9.34482E-04-7.52738E-04 2.62580E-19
 -1        34 5.75199E-06-2.19701E-03-7.87741E-19
 -1        35 9.39375E-04-7.77468E-04 3.69306E-19
 -1        36-2.61047E-03-7.01246E-03 1.84230E-20
 -1        37 2.63634E-03-7.03595E-03-2.73168E-20
 -1        38-2.24588E-03-4.45482E-03 1.77030E-18
 -1        39 1.30931E-05-6.98981E-03-1.28135E-18
 -1        40 2.26507E-03-4.47901E-03 5.78524E-19
 -1        41-2.93812E-03-1.28373E-02 3.79577E-20
 -1        42 2.97854E-03-1.28610E-02-2.17052E-21
 -1        43-2.82538E-03-9.85655E-03 5.71493E-18
 -1        44 2.01286E-05-1.28307E-02 1.20279E-19
 -1        45 2.85851E-03-9.88031E-03-8.91545E-18
 -1        46-2.98692E-03-1.88858E-02-8.00711E-20
 -1        47 3.04142E-03-1.89095E-02 1.05720E-19
 -1        48-2.98118E-03-1.58630E-02 8.84001E-18
 -1        49 2.73249E-05-1.88953E-02 4.86462E-19
 -1        50 3.02864E-03-1.58869E-02-1.39884E-18
 -1        51 0.00000E+00 0.00000E+00 0.00000E+00
 -1        52 0.00000E+00 0.00000E+00 0.00000E+00
 -1        53 5.21458E-04-5.27077E-04 0.00000E+00
 -1        54 8.68135E-06-4.61591E-04 0.00000E+00
 -1        55 9.35039E-04-1.45539E-03 0.00000E+00
 -1        56-1.37413E-06-1.40833E-03 0.00000E+00
 -1        57 1.22818E-03-2.70979E-03 0.00000E+00
 -1        58-6.44266E-06-2.67391E-03 0.00000E+00
 -1        59 1.42490E-03-4.17939E-03 0.00000E+00
 -1        60-8.52135E-06-4.15218E-03 0.00000E+00
 -1        61 1.54555E-03-5.77783E-03 0.00000E+00
 -1        62-8.86677E-06-5.75693E-03 0.00000E+00
 -1        63 1.60958E-03-7.43831E-03 0.00000E+00
 -1        64-7.92137E-06-7.42108E-03 0.00000E+00
 -1        65 1.63619E-03-9.11292E-03 0.00000E+00
 -1        66-5.81417E-06-9.09668E-03 0.00000E+00
 -1        67 1.64483E-03-1.07718E-02 0.00000E+00
 -1        68-2.98021E-06-1.07553E-02 0.00000E+00
 -1        69 0.00000E+00 0.00000E+00 0.00000E+00
 -1        70-5.43755E-04-5.43526E-04 0.00000E+00
 -1        71-9.47951E-04-1.47470E-03 0.00000E+00
 -1        72-1.24027E-03-2.72154E-03 0.00000E+00
 -1        73-1.43758E-03-4.18347E-03 0.00000E+00
 -1        74-1.55784E-03-5.77472E-03 0.00000E+00
 -1        75-1.61980E-03-7.42825E-03 0.00000E+00
 -1        76-1.64265E-03-9.09638E-03 0.00000E+00
 -1        77-1.64601E-03-1.07519E-02 0.00000E+00
 -1        78 0.00000E+00 0.00000E+00-1.10114E-20
 -1        79 0.00000E+00 0.00000E+00 3.38813E-21
 -1        80 1.70507E-03-2.33506E-03 7.19978E-21
 -1        81 0.00000E+00 0.00000E+00 2.42251E-19
 -1        82 1.22639E-05-6.50402E-04 1.80185E-18
 -1        83 9.07313E-04-7.74479E-04-4.45539E-19
 -1        84-1.71622E-03-2.27540E-03 1.18585E-20
 -1        85-9.41548E-04-7.82772E-04 1.53652E-18
 -1        86 4.77352E-06-2.20157E-03 1.43858E-18
 -1        87 2.63270E-03-7.01862E-03 2.75286E-20
 -1        88 4.77668E-06-4.36040E-03 9.07193E-18
 -1        89 2.22896E-03-4.43544E-03 5.23212E-18
 -1        90-2.61594E-03-6.96644E-03 1.43996E-20
 -1        91-2.22277E-03-4.43275E-03 2.08455E-18
 -1        92 6.98789E-06-6.94143E-03 1.84574E-18
 -1        93 2.98365E-03-1.28153E-02 1.41084E-20
 -1        94 1.09627E-05-9.79040E-03 1.48809E-17
 -1        95 2.84380E-03-9.82838E-03 6.89760E-18
 -1        96-2.95200E-03-1.27771E-02-3.85400E-20
 -1        97-2.81868E-03-9.81609E-03-1.81185E-17
 -1        98 1.37323E-05-1.27767E-02-4.06621E-18
 -1        99 3.05030E-03-1.88779E-02 1.07547E-19
 -1       100 1.75639E-05-1.58173E-02-5.13927E-18
 -1       101 3.02948E-03-1.58382E-02 2.74309E-18
 -1       102-3.00121E-03-1.88437E-02 3.74109E-20
 -1       103-2.98879E-03-1.58171E-02-8.97511E-18
 -1       104 2.11309E-05-1.88523E-02 1.17471E-17
 -1       105 8.78405E-04-7.58129E-04 0.00000E+00
 -1       106 5.07577E-07-5.93656E-04 0.00000E+00
 -1       107 1.56495E-03-2.14399E-03 0.00000E+00
 -1       108 5.46323E-06-2.04472E-03 0.00000E+00
 -1       109 2.05584E-03-4.10698E-03 0.00000E+00
 -1       110 9.14459E-06-4.02808E-03 0.00000E+00
 -1       111 2.38861E-03-6.44629E-03 0.00000E+00
 -1       112 1.26899E-05-6.39001E-03 0.00000E+00
 -1       113 2.59380E-03-9.02310E-03 0.00000E+00
 -1       114 1.62581E-05-8.98333E-03 0.00000E+00
 -1       115 2.70349E-03-1.17251E-02 0.00000E+00
 -1       116 1.98300E-05-1.16973E-02 0.00000E+00
 -1       117 2.74949E-03-1.44728E-02 0.00000E+00
 -1       118 2.34015E-05-1.44522E-02 0.00000E+00
 -1       119 0.00000E+00 0.00000E+00 0.00000E+00
 -1       120 5.07577E-07-5.93656E-04 0.00000E+00
 -1       121 5.07577E-07-5.93656E-04 0.00000E+00
 -1       122-8.72060E-04-7.33595E-04 0.00000E+00
 -1       123 5.46323E-06-2.04472E-03 0.00000E+00
 -1       124 5.46323E-06-2.04472E-03 0.00000E+00
 -1       125-1.55385E-03-2.11965E-03 0.00000E+00
 -1       126 9.14459E-06-4.02808E-03 0.00000E+00
 -1       127 9.14459E-06-4.02808E-03 0.00000E+00
 -1       128-2.03766E-03-4.08317E-03 0.00000E+00
 -1       129 1.26899E-05-6.39001E-03 0.00000E+00
 -1       130 1.26899E-05-6.39001E-03 0.00000E+00
 -1       131-2.36324E-03-6.42250E-03 0.00000E+00
 -1       132 1.62581E-05-8.98333E-03 0.00000E+00
 -1       133 1.62581E-05-8.98333E-03 0.00000E+00
 -1       134-2.56128E-03-8.99930E-03 0.00000E+00
 -1       135 1.98300E-05-1.16973E-02 0.00000E+00
 -1       136 1.98300E-05-1.16973E-02 0.00000E+00
 -1       137-2.66383E-03-1.17013E-02 0.00000E+00
 -1       138 2.34015E-05-1.44522E-02 0.00000E+00
 -1       139 2.34015E-05-1.44522E-02 0.00000E+00
 -1       140-2.70268E-03-1.44490E-02 0.00000E+00
 -1       141 2.69730E-05-1.72002E-02 0.00000E+00
 -1       142 1.69758E-03-2.35523E-03 2.79521E-20
 -1       143-1.68466E-03-2.33440E-03-4.23516E-21
 -1       144 5.75199E-06-2.19701E-03 3.07007E-18
 -1       145 2.63634E-03-7.03595E-03-2.22346E-20
 -1       146-2.61047E-03-7.01246E-03 2.60463E-20
 -1       147 1.30931E-05-6.98981E-03 1.28961E-17
 -1       148 2.97854E-03-1.28610E-02-1.27320E-19
 -1       149-2.93812E-03-1.28373E-02 1.22079E-19
 -1       150 2.01286E-05-1.28307E-02-7.26066E-19
 -1       151 5.21458E-04-5.27077E-04 0.00000E+00
 -1       152 0.00000E+00 0.00000E+00 0.00000E+00
 -1       153 5.21458E-04-5.27077E-04 0.00000E+00
 -1       154 8.68135E-06-4.61591E-04 0.00000E+00
 -1       155 9.35039E-04-1.45539E-03 0.00000E+00
 -1       156 8.68135E-06-4.61591E-04 0.00000E+00
 -1       157 9.35039E-04-1.45539E-03 0.00000E+00
 -1       158-1.37413E-06-1.40833E-03 0.00000E+00
 -1       159 1.22818E-03-2.70979E-03 0.00000E+00
 -1       160-1.37413E-06-1.40833E-03 0.00000E+00
 -1       161 1.22818E-03-2.70979E-03 0.00000E+00
 -1       162-6.44266E-06-2.67391E-03 0.00000E+00
 -1       163 1.42490E-03-4.17939E-03 0.00000E+00
 -1       164-6.44266E-06-2.67391E-03 0.00000E+00
 -1       165 1.42490E-03-4.17939E-03 0.00000E+00
 -1       166-8.52135E-06-4.15218E-03 0.00000E+00
 -1       167 1.54555E-03-5.77783E-03 0.00000E+00
 -1       168-8.52135E-06-4.15218E-03 0.00000E+00
 -1       169 1.54555E-03-5.77783E-03 0.00000E+00
 -1       170-8.86677E-06-5.75693E-03 0.00000E+00
 -1       171 1.60958E-03-7.43831E-03 0.00000E+00
 -1       172-8.86677E-06-5.75693E-03 0.00000E+00
 -1       173 1.60958E-03-7.43831E-03 0.00000E+00
 -1       174-7.92137E-06-7.42108E-03 0.00000E+00
 -1       175 1.63619E-03-9.11292E-03 0.00000E+00
 -1       176-7.92137E-06-7.42108E-03 0.00000E+00
 -1       177 1.63619E-03-9.11292E-03 0.00000E+00
 -1       178-5.81417E-06-9.09668E-03 0.00000E+00
 -1       179 1.64483E-03-1.07718E-02 0.00000E+00
 -1       180-5.81417E-06-9.09668E-03 0.00000E+00
 -1       181 0.00000E+00 0.00000E+00 0.00000E+00
 -1       182 8.68135E-06-4.61591E-04 0.00000E+00
 -1       183 8.68135E-06-4.61591E-04 0.00000E+00
 -1       184 0.00000E+00 0.00000E+00 0.00000E+00
 -1       185 8.68135E-06-4.61591E-04 0.00000E+00
 -1       186-5.43755E-04-5.43526E-04 0.00000E+00
 -1       187-1.37413E-06-1.40833E-03 0.00000E+00
 -1       188-1.37413E-06-1.40833E-03 0.00000E+00
 -1       189-5.43755E-04-5.43526E-04 0.00000E+00
 -1       190-1.37413E-06-1.40833E-03 0.00000E+00
 -1       191-9.47951E-04-1.47470E-03 0.00000E+00
 -1       192-6.44266E-06-2.67391E-03 0.00000E+00
 -1       193-6.44266E-06-2.67391E-03 0.00000E+00
 -1       194-9.47951E-04-1.47470E-03 0.00000E+00
 -1       195-6.44266E-06-2.67391E-03 0.00000E+00
 -1       196-1.24027E-03-2.72154E-03 0.00000E+00
 -1       197-8.52135E-06-4.15218E-03 0.00000E+00
 -1       198-8.52135E-06-4.15218E-03 0.00000E+00
 -1       199-1.24027E-03-2.72154E-03 0.00000E+00
 -1       200-8.52135E-06-4.15218E-03 0.00000E+00
 -1       201-1.43758E-03-4.18347E-03 0.00000E+00
 -1       202-8.86677E-06-5.75693E-03 0.00000E+00
 -1       203-8.86677E-06-5.75693E-03 0.00000E+00
 -1       204-1.43758E-03-4.18347E-03 0.00000E+00
 -1       205-8.86677E-06-5.75693E-03 0.00000E+00
 -1       206-1.55784E-03-5.77472E-03 0.00000E+00
 -1       207-7.92137E-06-7.42108E-03 0.00000E+00
 -1       208-7.92137E-06-7.42108E-03 0.00000E+00
 -1       209-1.55784E-03-5.77472E-03 0.00000E+00
 -1       210-7.92137E-06-7.42108E-03 0.00000E+00
 -1       211-1.61980E-03-7.42825E-03 0.00000E+00
 -1       212-5.81417E-06-9.09668E-03 0.00000E+00
 -1       213-5.81417E-06-9.09668E-03 0.00000E+00
 -1       214-1.61980E-03-7.42825E-03 0.00000E+00
 -1       215-5.81417E-06-9.09668E-03 0.00000E+00
 -1       216-1.64265E-03-9.09638E-03 0.00000E+00
 -1       217-2.98021E-06-1.07553E-02 0.00000E+00
 -1       218-2.98021E-06-1.07553E-02 0.00000E+00
 -1       219-1.64265E-03-9.09638E-03 0.00000E+00
 -1       220 1.70507E-03-2.33506E-03 4.23516E-21
 -1       221 0.00000E+00 0.00000E+00-9.31736E-21
 -1       222 1.22639E-05-6.50402E-04 1.77623E-18
 -1       223 1.70507E-03-2.33506E-03 2.03288E-20
 -1       224-1.71622E-03-2.27540E-03-2.32934E-20
 -1       225 4.77352E-06-2.20157E-03 6.37657E-19
 -1       226 2.63270E-03-7.01862E-03-9.31736E-21
 -1       227-1.71622E-03-2.27540E-03-1.10114E-20
 -1       228 4.77668E-06-4.36040E-03-1.76225E-18
 -1       229 2.63270E-03-7.01862E-03-2.60463E-20
 -1       230-2.61594E-03-6.96644E-03 1.27055E-20
 -1       231 6.98789E-06-6.94143E-03 5.97108E-18
 -1       232 2.98365E-03-1.28153E-02 3.53636E-20
 -1       233-2.61594E-03-6.96644E-03-6.77626E-21
 -1       234 1.09627E-05-9.79040E-03-1.00819E-17
 -1       235 2.98365E-03-1.28153E-02 4.63527E-20
 -1       236-2.95200E-03-1.27771E-02-1.67315E-19
 -1       237 1.37323E-05-1.27767E-02-1.72206E-17
 -1       238 3.05030E-03-1.88779E-02 6.74979E-20
 -1       239-2.95200E-03-1.27771E-02-7.19449E-20
 -1       240 1.75639E-05-1.58173E-02 5.92923E-19
 -3
    1PSTEP                         2           1           1          
  100CL  101 1.000000000         240                     0    1           1
 -4  STRESS      6    1
 -5  SXX         1    4    1    1
 -5  SYY         1    4    2    2
 -5  SZZ         1    4    3    3
 -5  SXY         1    4    1    2
 -5  SYZ         1    4    2    3
 -5  SZX         1    4    3    1