    1C
    1UUSER                                                              
    1UDATE              30.march.2022                                   
    1UTIME              09:57:30                                        
    1UHOST                                                              
    1UPGM               CalculiX                                        
    1UVERSION           Version 2.19                             
    1UCOMPILETIME       Wed Mar 30 06:04:19 EDT 2022                    
    1UDIR                                                               
    1UDBN                                                               
    1UMAT    1STEEL                                                     
    2C                          1764                                     1
 -1         1 0.00000E+00 1.00000E+00 1.00000E+01
 -1         2 0.00000E+00 1.00000E+00 5.00000E+00
 -1         3 2.50000E+00 1.00000E+00 5.00000E+00
 -1         4 2.50000E+00 1.00000E+00 1.00000E+01
 -1         5 0.00000E+00 0.00000E+00 1.00000E+01
 -1         6 0.00000E+00 0.00000E+00 5.00000E+00
 -1         7 2.50000E+00 0.00000E+00 5.00000E+00
 -1         8 2.50000E+00 0.00000E+00 1.00000E+01
 -1         9 5.00000E+00 1.00000E+00 5.00000E+00
 -1        10 5.00000E+00 1.00000E+00 1.00000E+01
 -1        11 5.00000E+00 0.00000E+00 5.00000E+00
 -1        12 5.00000E+00 0.00000E+00 1.00000E+01
 -1        13 7.50000E+00 1.00000E+00 5.00000E+00
 -1        14 7.50000E+00 1.00000E+00 1.00000E+01
 -1        15 7.50000E+00 0.00000E+00 5.00000E+00
 -1        16 7.50000E+00 0.00000E+00 1.00000E+01
 -1        17 1.00000E+01 1.00000E+00 5.00000E+00
 -1        18 1.00000E+01 1.00000E+00 1.00000E+01
 -1        19 1.00000E+01 0.00000E+00 5.00000E+00
 -1        20 1.00000E+01 0.00000E+00 1.00000E+01
 -1        21 1.25000E+01 1.00000E+00 5.00000E+00
 -1        22 1.25000E+01 1.00000E+00 1.00000E+01
 -1        23 1.25000E+01 0.00000E+00 5.00000E+00
 -1        24 1.25000E+01 0.00000E+00 1.00000E+01
 -1        25 1.50000E+01 1.00000E+00 5.00000E+00
 -1        26 1.50000E+01 1.00000E+00 1.00000E+01
 -1        27 1.50000E+01 0.00000E+00 5.00000E+00
 -1        28 1.50000E+01 0.00000E+00 1.00000E+01
 -1        29 1.75000E+01 1.00000E+00 5.00000E+00
 -1        30 1.75000E+01 1.00000E+00 1.00000E+01
 -1        31 1.75000E+01 0.00000E+00 5.00000E+00
 -1        32 1.75000E+01 0.00000E+00 1.00000E+01
 -1        33 2.00000E+01 1.00000E+00 5.00000E+00
 -1        34 2.00000E+01 1.00000E+00 1.00000E+01
 -1        35 2.00000E+01 0.00000E+00 5.00000E+00
 -1        36 2.00000E+01 0.00000E+00 1.00000E+01
 -1        37 2.25000E+01 1.00000E+00 5.00000E+00
 -1        38 2.25000E+01 1.00000E+00 1.00000E+01
 -1        39 2.25000E+01 0.00000E+00 5.00000E+00
 -1        40 2.25000E+01 0.00000E+00 1.00000E+01
 -1        41 2.50000E+01 1.00000E+00 5.00000E+00
 -1        42 2.50000E+01 1.00000E+00 1.00000E+01
 -1        43 2.50000E+01 0.00000E+00 5.00000E+00
 -1        44 2.50000E+01 0.00000E+00 1.00000E+01
 -1        45 2.75000E+01 1.00000E+00 5.00000E+00
 -1        46 2.75000E+01 1.00000E+00 1.00000E+01
 -1        47 2.75000E+01 0.00000E+00 5.00000E+00
 -1        48 2.75000E+01 0.00000E+00 1.00000E+01
 -1        49 3.00000E+01 1.00000E+00 5.00000E+00
 -1        50 3.00000E+01 1.00000E+00 1.00000E+01
 -1        51 3.00000E+01 0.00000E+00 5.00000E+00
 -1        52 3.00000E+01 0.00000E+00 1.00000E+01
 -1        53 3.25000E+01 1.00000E+00 5.00000E+00
 -1        54 3.25000E+01 1.00000E+00 1.00000E+01
 -1        55 3.25000E+01 0.00000E+00 5.00000E+00
 -1        56 3.25000E+01 0.00000E+00 1.00000E+01
 -1        57 3.50000E+01 1.00000E+00 5.00000E+00
 -1        58 3.50000E+01 1.00000E+00 1.00000E+01
 -1        59 3.50000E+01 0.00000E+00 5.00000E+00
 -1        60 3.50000E+01 0.00000E+00 1.00000E+01
 -1        61 3.75000E+01 1.00000E+00 5.00000E+00
 -1        62 3.75000E+01 1.00000E+00 1.00000E+01
 -1        63 3.75000E+01 0.00000E+00 5.00000E+00
 -1        64 3.75000E+01 0.00000E+00 1.00000E+01
 -1        65 4.00000E+01 1.00000E+00 5.00000E+00
 -1        66 4.00000E+01 1.00000E+00 1.00000E+01
 -1        67 4.00000E+01 0.00000E+00 5.00000E+00
 -1        68 4.00000E+01 0.00000E+00 1.00000E+01
 -1        69 4.25000E+01 1.00000E+00 5.00000E+00
 -1        70 4.25000E+01 1.00000E+00 1.00000E+01
 -1        71 4.25000E+01 0.00000E+00 5.00000E+00
 -1        72 4.25000E+01 0.00000E+00 1.00000E+01
 -1        73 4.50000E+01 1.00000E+00 5.00000E+00
 -1        74 4.50000E+01 1.00000E+00 1.00000E+01
 -1        75 4.50000E+01 0.00000E+00 5.00000E+00
 -1        76 4.50000E+01 0.00000E+00 1.00000E+01
 -1        77 4.75000E+01 1.00000E+00 5.00000E+00
 -1        78 4.75000E+01 1.00000E+00 1.00000E+01
 -1        79 4.75000E+01 0.00000E+00 5.00000E+00
 -1        80 4.75000E+01 0.00000E+00 1.00000E+01
 -1        81 5.00000E+01 1.00000E+00 5.00000E+00
 -1        82 5.00000E+01 1.00000E+00 1.00000E+01
 -1        83 5.00000E+01 0.00000E+00 5.00000E+00
 -1        84 5.00000E+01 0.00000E+00 1.00000E+01
 -1        85 0.00000E+00 1.00000E+00 0.00000E+00
 -1        86 2.50000E+00 1.00000E+00 0.00000E+00
 -1        87 0.00000E+00 0.00000E+00 0.00000E+00
 -1        88 2.50000E+00 0.00000E+00 0.00000E+00
 -1        89 5.00000E+00 1.00000E+00 0.00000E+00
 -1        90 5.00000E+00 0.00000E+00 0.00000E+00
 -1        91 7.50000E+00 1.00000E+00 0.00000E+00
 -1        92 7.50000E+00 0.00000E+00 0.00000E+00
 -1        93 1.00000E+01 1.00000E+00 0.00000E+00
 -1        94 1.00000E+01 0.00000E+00 0.00000E+00
 -1        95 1.25000E+01 1.00000E+00 0.00000E+00
 -1        96 1.25000E+01 0.00000E+00 0.00000E+00
 -1        97 1.50000E+01 1.00000E+00 0.00000E+00
 -1        98 1.50000E+01 0.00000E+00 0.00000E+00
 -1        99 1.75000E+01 1.00000E+00 0.00000E+00
 -1       100 1.75000E+01 0.00000E+00 0.00000E+00
 -1       101 2.00000E+01 1.00000E+00 0.00000E+00
 -1       102 2.00000E+01 0.00000E+00 0.00000E+00
 -1       103 2.25000E+01 1.00000E+00 0.00000E+00
 -1       104 2.25000E+01 0.00000E+00 0.00000E+00
 -1       105 2.50000E+01 1.00000E+00 0.00000E+00
 -1       106 2.50000E+01 0.00000E+00 0.00000E+00
 -1       107 2.75000E+01 1.00000E+00 0.00000E+00
 -1       108 2.75000E+01 0.00000E+00 0.00000E+00
 -1       109 3.00000E+01 1.00000E+00 0.00000E+00
 -1       110 3.00000E+01 0.00000E+00 0.00000E+00
 -1       111 3.25000E+01 1.00000E+00 0.00000E+00
 -1       112 3.25000E+01 0.00000E+00 0.00000E+00
 -1       113 3.50000E+01 1.00000E+00 0.00000E+00
 -1       114 3.50000E+01 0.00000E+00 0.00000E+00
 -1       115 3.75000E+01 1.00000E+00 0.00000E+00
 -1       116 3.75000E+01 0.00000E+00 0.00000E+00
 -1       117 4.00000E+01 1.00000E+00 0.00000E+00
 -1       118 4.00000E+01 0.00000E+00 0.00000E+00
 -1       119 4.25000E+01 1.00000E+00 0.00000E+00
 -1       120 4.25000E+01 0.00000E+00 0.00000E+00
 -1       121 4.50000E+01 1.00000E+00 0.00000E+00
 -1       122 4.50000E+01 0.00000E+00 0.00000E+00
 -1       123 4.75000E+01 1.00000E+00 0.00000E+00
 -1       124 4.75000E+01 0.00000E+00 0.00000E+00
 -1       125 5.00000E+01 1.00000E+00 0.00000E+00
 -1       126 5.00000E+01 0.00000E+00 0.00000E+00
 -1       127 0.00000E+00 3.20000E+01 1.00000E+01
 -1       128 0.00000E+00 3.20000E+01 5.00000E+00
 -1       129 2.50000E+00 3.20000E+01 5.00000E+00
 -1       130 2.50000E+00 3.20000E+01 1.00000E+01
 -1       131 0.00000E+00 3.10000E+01 1.00000E+01
 -1       132 0.00000E+00 3.10000E+01 5.00000E+00
 -1       133 2.50000E+00 3.10000E+01 5.00000E+00
 -1       134 2.50000E+00 3.10000E+01 1.00000E+01
 -1       135 5.00000E+00 3.20000E+01 5.00000E+00
 -1       136 5.00000E+00 3.20000E+01 1.00000E+01
 -1       137 5.00000E+00 3.10000E+01 5.00000E+00
 -1       138 5.00000E+00 3.10000E+01 1.00000E+01
 -1       139 7.50000E+00 3.20000E+01 5.00000E+00
 -1       140 7.50000E+00 3.20000E+01 1.00000E+01
 -1       141 7.50000E+00 3.10000E+01 5.00000E+00
 -1       142 7.50000E+00 3.10000E+01 1.00000E+01
 -1       143 1.00000E+01 3.20000E+01 5.00000E+00
 -1       144 1.00000E+01 3.20000E+01 1.00000E+01
 -1       145 1.00000E+01 3.10000E+01 5.00000E+00
 -1       146 1.00000E+01 3.10000E+01 1.00000E+01
 -1       147 1.25000E+01 3.20000E+01 5.00000E+00
 -1       148 1.25000E+01 3.20000E+01 1.00000E+01
 -1       149 1.25000E+01 3.10000E+01 5.00000E+00
 -1       150 1.25000E+01 3.10000E+01 1.00000E+01
 -1       151 1.50000E+01 3.20000E+01 5.00000E+00
 -1       152 1.50000E+01 3.20000E+01 1.00000E+01
 -1       153 1.50000E+01 3.10000E+01 5.00000E+00
 -1       154 1.50000E+01 3.10000E+01 1.00000E+01
 -1       155 1.75000E+01 3.20000E+01 5.00000E+00
 -1       156 1.75000E+01 3.20000E+01 1.00000E+01
 -1       157 1.75000E+01 3.10000E+01 5.00000E+00
 -1       158 1.75000E+01 3.10000E+01 1.00000E+01
 -1       159 2.00000E+01 3.20000E+01 5.00000E+00
 -1       160 2.00000E+01 3.20000E+01 1.00000E+01
 -1       161 2.00000E+01 3.10000E+01 5.00000E+00
 -1       162 2.00000E+01 3.10000E+01 1.00000E+01
 -1       163 2.25000E+01 3.20000E+01 5.00000E+00
 -1       164 2.25000E+01 3.20000E+01 1.00000E+01
 -1       165 2.25000E+01 3.10000E+01 5.00000E+00
 -1       166 2.25000E+01 3.10000E+01 1.00000E+01
 -1       167 2.50000E+01 3.20000E+01 5.00000E+00
 -1       168 2.50000E+01 3.20000E+01 1.00000E+01
 -1       169 2.50000E+01 3.10000E+01 5.00000E+00
 -1       170 2.50000E+01 3.10000E+01 1.00000E+01
 -1       171 2.75000E+01 3.20000E+01 5.00000E+00
 -1       172 2.75000E+01 3.20000E+01 1.00000E+01
 -1       173 2.75000E+01 3.10000E+01 5.00000E+00
 -1       174 2.75000E+01 3.10000E+01 1.00000E+01
 -1       175 3.00000E+01 3.20000E+01 5.00000E+00
 -1       176 3.00000E+01 3.20000E+01 1.00000E+01
 -1       177 3.00000E+01 3.10000E+01 5.00000E+00
 -1       178 3.00000E+01 3.10000E+01 1.00000E+01
 -1       179 3.25000E+01 3.20000E+01 5.00000E+00
 -1       180 3.25000E+01 3.20000E+01 1.00000E+01
 -1       181 3.25000E+01 3.10000E+01 5.00000E+00
 -1       182 3.25000E+01 3.10000E+01 1.00000E+01
 -1       183 3.50000E+01 3.20000E+01 5.00000E+00
 -1       184 3.50000E+01 3.20000E+01 1.00000E+01
 -1       185 3.50000E+01 3.10000E+01 5.00000E+00
 -1       186 3.50000E+01 3.10000E+01 1.00000E+01
 -1       187 3.75000E+01 3.20000E+01 5.00000E+00
 -1       188 3.75000E+01 3.20000E+01 1.00000E+01
 -1       189 3.75000E+01 3.10000E+01 5.00000E+00
 -1       190 3.75000E+01 3.10000E+01 1.00000E+01
 -1       191 4.00000E+01 3.20000E+01 5.00000E+00
 -1       192 4.00000E+01 3.20000E+01 1.00000E+01
 -1       193 4.00000E+01 3.10000E+01 5.00000E+00
 -1       194 4.00000E+01 3.10000E+01 1.00000E+01
 -1       195 4.25000E+01 3.20000E+01 5.00000E+00
 -1       196 4.25000E+01 3.20000E+01 1.00000E+01
 -1       197 4.25000E+01 3.10000E+01 5.00000E+00
 -1       198 4.25000E+01 3.10000E+01 1.00000E+01
 -1       199 4.50000E+01 3.20000E+01 5.00000E+00
 -1       200 4.50000E+01 3.20000E+01 1.00000E+01
 -1       201 4.50000E+01 3.10000E+01 5.00000E+00
 -1       202 4.50000E+01 3.10000E+01 1.00000E+01
 -1       203 4.75000E+01 3.20000E+01 5.00000E+00
 -1       204 4.75000E+01 3.20000E+01 1.00000E+01
 -1       205 4.75000E+01 3.10000E+01 5.00000E+00
 -1       206 4.75000E+01 3.10000E+01 1.00000E+01
 -1       207 5.00000E+01 3.20000E+01 5.00000E+00
 -1       208 5.00000E+01 3.20000E+01 1.00000E+01
 -1       209 5.00000E+01 3.10000E+01 5.00000E+00
 -1       210 5.00000E+01 3.10000E+01 1.00000E+01
 -1       211 0.00000E+00 3.20000E+01 0.00000E+00
 -1       212 2.50000E+00 3.20000E+01 0.00000E+00
 -1       213 0.00000E+00 3.10000E+01 0.00000E+00
 -1       214 2.50000E+00 3.10000E+01 0.00000E+00
 -1       215 5.00000E+00 3.20000E+01 0.00000E+00
 -1       216 5.00000E+00 3.10000E+01 0.00000E+00
 -1       217 7.50000E+00 3.20000E+01 0.00000E+00
 -1       218 7.50000E+00 3.10000E+01 0.00000E+00
 -1       219 1.00000E+01 3.20000E+01 0.00000E+00
 -1       220 1.00000E+01 3.10000E+01 0.00000E+00
 -1       221 1.25000E+01 3.20000E+01 0.00000E+00
 -1       222 1.25000E+01 3.10000E+01 0.00000E+00
 -1       223 1.50000E+01 3.20000E+01 0.00000E+00
 -1       224 1.50000E+01 3.10000E+01 0.00000E+00
 -1       225 1.75000E+01 3.20000E+01 0.00000E+00
 -1       226 1.75000E+01 3.10000E+01 0.00000E+00
 -1       227 2.00000E+01 3.20000E+01 0.00000E+00
 -1       228 2.00000E+01 3.10000E+01 0.00000E+00
 -1       229 2.25000E+01 3.20000E+01 0.00000E+00
 -1       230 2.25000E+01 3.10000E+01 0.00000E+00
 -1       231 2.50000E+01 3.20000E+01 0.00000E+00
 -1       232 2.50000E+01 3.10000E+01 0.00000E+00
 -1       233 2.75000E+01 3.20000E+01 0.00000E+00
 -1       234 2.75000E+01 3.10000E+01 0.00000E+00
 -1       235 3.00000E+01 3.20000E+01 0.00000E+00
 -1       236 3.00000E+01 3.10000E+01 0.00000E+00
 -1       237 3.25000E+01 3.20000E+01 0.00000E+00
 -1       238 3.25000E+01 3.10000E+01 0.00000E+00
 -1       239 3.50000E+01 3.20000E+01 0.00000E+00
 -1       240 3.50000E+01 3.10000E+01 0.00000E+00
 -1       241 3.75000E+01 3.20000E+01 0.00000E+00
 -1       242 3.75000E+01 3.10000E+01 0.00000E+00
 -1       243 4.00000E+01 3.20000E+01 0.00000E+00
 -1       244 4.00000E+01 3.10000E+01 0.00000E+00
 -1       245 4.25000E+01 3.20000E+01 0.00000E+00
 -1       246 4.25000E+01 3.10000E+01 0.00000E+00
 -1       247 4.50000E+01 3.20000E+01 0.00000E+00
 -1       248 4.50000E+01 3.10000E+01 0.00000E+00
 -1       249 4.75000E+01 3.20000E+01 0.00000E+00
 -1       250 4.75000E+01 3.10000E+01 0.00000E+00
 -1       251 5.00000E+01 3.20000E+01 0.00000E+00
 -1       252 5.00000E+01 3.10000E+01 0.00000E+00
 -1       253 0.00000E+00 7.20000E+01 1.00000E+01
 -1       254 0.00000E+00 7.20000E+01 5.00000E+00
 -1       255 2.50000E+00 7.20000E+01 5.00000E+00
 -1       256 2.50000E+00 7.20000E+01 1.00000E+01
 -1       257 0.00000E+00 6.70000E+01 1.00000E+01
 -1       258 0.00000E+00 6.70000E+01 5.00000E+00
 -1       259 2.50000E+00 6.70000E+01 5.00000E+00
 -1       260 2.50000E+00 6.70000E+01 1.00000E+01
 -1       261 5.00000E+00 7.20000E+01 5.00000E+00
 -1       262 5.00000E+00 7.20000E+01 1.00000E+01
 -1       263 5.00000E+00 6.70000E+01 5.00000E+00
 -1       264 5.00000E+00 6.70000E+01 1.00000E+01
 -1       265 7.50000E+00 7.20000E+01 5.00000E+00
 -1       266 7.50000E+00 7.20000E+01 1.00000E+01
 -1       267 7.50000E+00 6.70000E+01 5.00000E+00
 -1       268 7.50000E+00 6.70000E+01 1.00000E+01
 -1       269 1.00000E+01 7.20000E+01 5.00000E+00
 -1       270 1.00000E+01 7.20000E+01 1.00000E+01
 -1       271 1.00000E+01 6.70000E+01 5.00000E+00
 -1       272 1.00000E+01 6.70000E+01 1.00000E+01
 -1       273 1.25000E+01 7.20000E+01 5.00000E+00
 -1       274 1.25000E+01 7.20000E+01 1.00000E+01
 -1       275 1.25000E+01 6.70000E+01 5.00000E+00
 -1       276 1.25000E+01 6.70000E+01 1.00000E+01
 -1       277 1.50000E+01 7.20000E+01 5.00000E+00
 -1       278 1.50000E+01 7.20000E+01 1.00000E+01
 -1       279 1.50000E+01 6.70000E+01 5.00000E+00
 -1       280 1.50000E+01 6.70000E+01 1.00000E+01
 -1       281 1.75000E+01 7.20000E+01 5.00000E+00
 -1       282 1.75000E+01 7.20000E+01 1.00000E+01
 -1       283 1.75000E+01 6.70000E+01 5.00000E+00
 -1       284 1.75000E+01 6.70000E+01 1.00000E+01
 -1       285 2.00000E+01 7.20000E+01 5.00000E+00
 -1       286 2.00000E+01 7.20000E+01 1.00000E+01
 -1       287 2.00000E+01 6.70000E+01 5.00000E+00
 -1       288 2.00000E+01 6.70000E+01 1.00000E+01
 -1       289 2.25000E+01 7.20000E+01 5.00000E+00
 -1       290 2.25000E+01 7.20000E+01 1.00000E+01
 -1       291 2.25000E+01 6.70000E+01 5.00000E+00
 -1       292 2.25000E+01 6.70000E+01 1.00000E+01
 -1       293 2.50000E+01 7.20000E+01 5.00000E+00
 -1       294 2.50000E+01 7.20000E+01 1.00000E+01
 -1       295 2.50000E+01 6.70000E+01 5.00000E+00
 -1       296 2.50000E+01 6.70000E+01 1.00000E+01
 -1       297 2.75000E+01 7.20000E+01 5.00000E+00
 -1       298 2.75000E+01 7.20000E+01 1.00000E+01
 -1       299 2.75000E+01 6.70000E+01 5.00000E+00
 -1       300 2.75000E+01 6.70000E+01 1.00000E+01
 -1       301 3.00000E+01 7.20000E+01 5.00000E+00
 -1       302 3.00000E+01 7.20000E+01 1.00000E+01
 -1       303 3.00000E+01 6.70000E+01 5.00000E+00
 -1       304 3.00000E+01 6.70000E+01 1.00000E+01
 -1       305 3.25000E+01 7.20000E+01 5.00000E+00
 -1       306 3.25000E+01 7.20000E+01 1.00000E+01
 -1       307 3.25000E+01 6.70000E+01 5.00000E+00
 -1       308 3.25000E+01 6.70000E+01 1.00000E+01
 -1       309 3.50000E+01 7.20000E+01 5.00000E+00
 -1       310 3.50000E+01 7.20000E+01 1.00000E+01
 -1       311 3.50000E+01 6.70000E+01 5.00000E+00
 -1       312 3.50000E+01 6.70000E+01 1.00000E+01
 -1       313 3.75000E+01 7.20000E+01 5.00000E+00
 -1       314 3.75000E+01 7.20000E+01 1.00000E+01
 -1       315 3.75000E+01 6.70000E+01 5.00000E+00
 -1       316 3.75000E+01 6.70000E+01 1.00000E+01
 -1       317 4.00000E+01 7.20000E+01 5.00000E+00
 -1       318 4.00000E+01 7.20000E+01 1.00000E+01
 -1       319 4.00000E+01 6.70000E+01 5.00000E+00
 -1       320 4.00000E+01 6.70000E+01 1.00000E+01
 -1       321 4.25000E+01 7.20000E+01 5.00000E+00
 -1       322 4.25000E+01 7.20000E+01 1.00000E+01
 -1       323 4.25000E+01 6.70000E+01 5.00000E+00
 -1       324 4.25000E+01 6.70000E+01 1.00000E+01
 -1       325 4.50000E+01 7.20000E+01 5.00000E+00
 -1       326 4.50000E+01 7.20000E+01 1.00000E+01
 -1       327 4.50000E+01 6.70000E+01 5.00000E+00
 -1       328 4.50000E+01 6.70000E+01 1.00000E+01
 -1       329 4.75000E+01 7.20000E+01 5.00000E+00
 -1       330 4.75000E+01 7.20000E+01 1.00000E+01
 -1       331 4.75000E+01 6.70000E+01 5.00000E+00
 -1       332 4.75000E+01 6.70000E+01 1.00000E+01
 -1       333 5.00000E+01 7.20000E+01 5.00000E+00
 -1       334 5.00000E+01 7.20000E+01 1.00000E+01
 -1       335 5.00000E+01 6.70000E+01 5.00000E+00
 -1       336 5.00000E+01 6.70000E+01 1.00000E+01
 -1       337 0.00000E+00 6.20000E+01 1.00000E+01
 -1       338 0.00000E+00 6.20000E+01 5.00000E+00
 -1       339 2.50000E+00 6.20000E+01 5.00000E+00
 -1       340 2.50000E+00 6.20000E+01 1.00000E+01
 -1       341 5.00000E+00 6.20000E+01 5.00000E+00
 -1       342 5.00000E+00 6.20000E+01 1.00000E+01
 -1       343 7.50000E+00 6.20000E+01 5.00000E+00
 -1       344 7.50000E+00 6.20000E+01 1.00000E+01
 -1       345 1.00000E+01 6.20000E+01 5.00000E+00
 -1       346 1.00000E+01 6.20000E+01 1.00000E+01
 -1       347 1.25000E+01 6.20000E+01 5.00000E+00
 -1       348 1.25000E+01 6.20000E+01 1.00000E+01
 -1       349 1.50000E+01 6.20000E+01 5.00000E+00
 -1       350 1.50000E+01 6.20000E+01 1.00000E+01
 -1       351 1.75000E+01 6.20000E+01 5.00000E+00
 -1       352 1.75000E+01 6.20000E+01 1.00000E+01
 -1       353 2.00000E+01 6.20000E+01 5.00000E+00
 -1       354 2.00000E+01 6.20000E+01 1.00000E+01
 -1       355 2.25000E+01 6.20000E+01 5.00000E+00
 -1       356 2.25000E+01 6.20000E+01 1.00000E+01
 -1       357 2.50000E+01 6.20000E+01 5.00000E+00
 -1       358 2.50000E+01 6.20000E+01 1.00000E+01
 -1       359 2.75000E+01 6.20000E+01 5.00000E+00
 -1       360 2.75000E+01 6.20000E+01 1.00000E+01
 -1       361 3.00000E+01 6.20000E+01 5.00000E+00
 -1       362 3.00000E+01 6.20000E+01 1.00000E+01
 -1       363 3.25000E+01 6.20000E+01 5.00000E+00
 -1       364 3.25000E+01 6.20000E+01 1.00000E+01
 -1       365 3.50000E+01 6.20000E+01 5.00000E+00
 -1       366 3.50000E+01 6.20000E+01 1.00000E+01
 -1       367 3.75000E+01 6.20000E+01 5.00000E+00
 -1       368 3.75000E+01 6.20000E+01 1.00000E+01
 -1       369 4.00000E+01 6.20000E+01 5.00000E+00
 -1       370 4.00000E+01 6.20000E+01 1.00000E+01
 -1       371 4.25000E+01 6.20000E+01 5.00000E+00
 -1       372 4.25000E+01 6.20000E+01 1.00000E+01
 -1       373 4.50000E+01 6.20000E+01 5.00000E+00
 -1       374 4.50000E+01 6.20000E+01 1.00000E+01
 -1       375 4.75000E+01 6.20000E+01 5.00000E+00
 -1       376 4.75000E+01 6.20000E+01 1.00000E+01
 -1       377 5.00000E+01 6.20000E+01 5.00000E+00
 -1       378 5.00000E+01 6.20000E+01 1.00000E+01
 -1       379 0.00000E+00 7.20000E+01 0.00000E+00
 -1       380 2.50000E+00 7.20000E+01 0.00000E+00
 -1       381 0.00000E+00 6.70000E+01 0.00000E+00
 -1       382 2.50000E+00 6.70000E+01 0.00000E+00
 -1       383 5.00000E+00 7.20000E+01 0.00000E+00
 -1       384 5.00000E+00 6.70000E+01 0.00000E+00
 -1       385 7.50000E+00 7.20000E+01 0.00000E+00
 -1       386 7.50000E+00 6.70000E+01 0.00000E+00
 -1       387 1.00000E+01 7.20000E+01 0.00000E+00
 -1       388 1.00000E+01 6.70000E+01 0.00000E+00
 -1       389 1.25000E+01 7.20000E+01 0.00000E+00
 -1       390 1.25000E+01 6.70000E+01 0.00000E+00
 -1       391 1.50000E+01 7.20000E+01 0.00000E+00
 -1       392 1.50000E+01 6.70000E+01 0.00000E+00
 -1       393 1.75000E+01 7.20000E+01 0.00000E+00
 -1       394 1.75000E+01 6.70000E+01 0.00000E+00
 -1       395 2.00000E+01 7.20000E+01 0.00000E+00
 -1       396 2.00000E+01 6.70000E+01 0.00000E+00
 -1       397 2.25000E+01 7.20000E+01 0.00000E+00
 -1       398 2.25000E+01 6.70000E+01 0.00000E+00
 -1       399 2.50000E+01 7.20000E+01 0.00000E+00
 -1       400 2.50000E+01 6.70000E+01 0.00000E+00
 -1       401 2.75000E+01 7.20000E+01 0.00000E+00
 -1       402 2.75000E+01 6.70000E+01 0.00000E+00
 -1       403 3.00000E+01 7.20000E+01 0.00000E+00
 -1       404 3.00000E+01 6.70000E+01 0.00000E+00
 -1       405 3.25000E+01 7.20000E+01 0.00000E+00
 -1       406 3.25000E+01 6.70000E+01 0.00000E+00
 -1       407 3.50000E+01 7.20000E+01 0.00000E+00
 -1       408 3.50000E+01 6.70000E+01 0.00000E+00
 -1       409 3.75000E+01 7.20000E+01 0.00000E+00
 -1       410 3.75000E+01 6.70000E+01 0.00000E+00
 -1       411 4.00000E+01 7.20000E+01 0.00000E+00
 -1       412 4.00000E+01 6.70000E+01 0.00000E+00
 -1       413 4.25000E+01 7.20000E+01 0.00000E+00
 -1       414 4.25000E+01 6.70000E+01 0.00000E+00
 -1       415 4.50000E+01 7.20000E+01 0.00000E+00
 -1       416 4.50000E+01 6.70000E+01 0.00000E+00
 -1       417 4.75000E+01 7.20000E+01 0.00000E+00
 -1       418 4.75000E+01 6.70000E+01 0.00000E+00
 -1       419 5.00000E+01 7.20000E+01 0.00000E+00
 -1       420 5.00000E+01 6.70000E+01 0.00000E+00
 -1       421 0.00000E+00 6.20000E+01 0.00000E+00
 -1       422 2.50000E+00 6.20000E+01 0.00000E+00
 -1       423 5.00000E+00 6.20000E+01 0.00000E+00
 -1       424 7.50000E+00 6.20000E+01 0.00000E+00
 -1       425 1.00000E+01 6.20000E+01 0.00000E+00
 -1       426 1.25000E+01 6.20000E+01 0.00000E+00
 -1       427 1.50000E+01 6.20000E+01 0.00000E+00
 -1       428 1.75000E+01 6.20000E+01 0.00000E+00
 -1       429 2.00000E+01 6.20000E+01 0.00000E+00
 -1       430 2.25000E+01 6.20000E+01 0.00000E+00
 -1       431 2.50000E+01 6.20000E+01 0.00000E+00
 -1       432 2.75000E+01 6.20000E+01 0.00000E+00
 -1       433 3.00000E+01 6.20000E+01 0.00000E+00
 -1       434 3.25000E+01 6.20000E+01 0.00000E+00
 -1       435 3.50000E+01 6.20000E+01 0.00000E+00
 -1       436 3.75000E+01 6.20000E+01 0.00000E+00
 -1       437 4.00000E+01 6.20000E+01 0.00000E+00
 -1       438 4.25000E+01 6.20000E+01 0.00000E+00
 -1       439 4.50000E+01 6.20000E+01 0.00000E+00
 -1       440 4.75000E+01 6.20000E+01 0.00000E+00
 -1       441 5.00000E+01 6.20000E+01 0.00000E+00
 -1       442 0.00000E+00 2.52000E+02 1.00000E+01
 -1       443 0.00000E+00 2.52000E+02 5.00000E+00
 -1       444 2.50000E+00 2.52000E+02 5.00000E+00
 -1       445 2.50000E+00 2.52000E+02 1.00000E+01
 -1       446 0.00000E+00 2.44500E+02 1.00000E+01
 -1       447 0.00000E+00 2.44500E+02 5.00000E+00
 -1       448 2.50000E+00 2.44500E+02 5.00000E+00
 -1       449 2.50000E+00 2.44500E+02 1.00000E+01
 -1       450 5.00000E+00 2.52000E+02 5.00000E+00
 -1       451 5.00000E+00 2.52000E+02 1.00000E+01
 -1       452 5.00000E+00 2.44500E+02 5.00000E+00
 -1       453 5.00000E+00 2.44500E+02 1.00000E+01
 -1       454 7.50000E+00 2.52000E+02 5.00000E+00
 -1       455 7.50000E+00 2.52000E+02 1.00000E+01
 -1       456 7.50000E+00 2.44500E+02 5.00000E+00
 -1       457 7.50000E+00 2.44500E+02 1.00000E+01
 -1       458 1.00000E+01 2.52000E+02 5.00000E+00
 -1       459 1.00000E+01 2.52000E+02 1.00000E+01
 -1       460 1.00000E+01 2.44500E+02 5.00000E+00
 -1       461 1.00000E+01 2.44500E+02 1.00000E+01
 -1       462 1.25000E+01 2.52000E+02 5.00000E+00
 -1       463 1.25000E+01 2.52000E+02 1.00000E+01
 -1       464 1.25000E+01 2.44500E+02 5.00000E+00
 -1       465 1.25000E+01 2.44500E+02 1.00000E+01
 -1       466 1.50000E+01 2.52000E+02 5.00000E+00
 -1       467 1.50000E+01 2.52000E+02 1.00000E+01
 -1       468 1.50000E+01 2.44500E+02 5.00000E+00
 -1       469 1.50000E+01 2.44500E+02 1.00000E+01
 -1       470 1.75000E+01 2.52000E+02 5.00000E+00
 -1       471 1.75000E+01 2.52000E+02 1.00000E+01
 -1       472 1.75000E+01 2.44500E+02 5.00000E+00
 -1       473 1.75000E+01 2.44500E+02 1.00000E+01
 -1       474 2.00000E+01 2.52000E+02 5.00000E+00
 -1       475 2.00000E+01 2.52000E+02 1.00000E+01
 -1       476 2.00000E+01 2.44500E+02 5.00000E+00
 -1       477 2.00000E+01 2.44500E+02 1.00000E+01
 -1       478 2.25000E+01 2.52000E+02 5.00000E+00
 -1       479 2.25000E+01 2.52000E+02 1.00000E+01
 -1       480 2.25000E+01 2.44500E+02 5.00000E+00
 -1       481 2.25000E+01 2.44500E+02 1.00000E+01
 -1       482 2.50000E+01 2.52000E+02 5.00000E+00
 -1       483 2.50000E+01 2.52000E+02 1.00000E+01
 -1       484 2.50000E+01 2.44500E+02 5.00000E+00
 -1       485 2.50000E+01 2.44500E+02 1.00000E+01
 -1       486 2.75000E+01 2.52000E+02 5.00000E+00
 -1       487 2.75000E+01 2.52000E+02 1.00000E+01
 -1       488 2.75000E+01 2.44500E+02 5.00000E+00
 -1       489 2.75000E+01 2.44500E+02 1.00000E+01
 -1       490 3.00000E+01 2.52000E+02 5.00000E+00
 -1       491 3.00000E+01 2.52000E+02 1.00000E+01
 -1       492 3.00000E+01 2.44500E+02 5.00000E+00
 -1       493 3.00000E+01 2.44500E+02 1.00000E+01
 -1       494 3.25000E+01 2.52000E+02 5.00000E+00
 -1       495 3.25000E+01 2.52000E+02 1.00000E+01
 -1       496 3.25000E+01 2.44500E+02 5.00000E+00
 -1       497 3.25000E+01 2.44500E+02 1.00000E+01
 -1       498 3.50000E+01 2.52000E+02 5.00000E+00
 -1       499 3.50000E+01 2.52000E+02 1.00000E+01
 -1       500 3.50000E+01 2.44500E+02 5.00000E+00
 -1       501 3.50000E+01 2.44500E+02 1.00000E+01
 -1       502 3.75000E+01 2.52000E+02 5.00000E+00
 -1       503 3.75000E+01 2.52000E+02 1.00000E+01
 -1       504 3.75000E+01 2.44500E+02 5.00000E+00
 -1       505 3.75000E+01 2.44500E+02 1.00000E+01
 -1       506 4.00000E+01 2.52000E+02 5.00000E+00
 -1       507 4.00000E+01 2.52000E+02 1.00000E+01
 -1       508 4.00000E+01 2.44500E+02 5.00000E+00
 -1       509 4.00000E+01 2.44500E+02 1.00000E+01
 -1       510 4.25000E+01 2.52000E+02 5.00000E+00
 -1       511 4.25000E+01 2.52000E+02 1.00000E+01
 -1       512 4.25000E+01 2.44500E+02 5.00000E+00
 -1       513 4.25000E+01 2.44500E+02 1.00000E+01
 -1       514 4.50000E+01 2.52000E+02 5.00000E+00
 -1       515 4.50000E+01 2.52000E+02 1.00000E+01
 -1       516 4.50000E+01 2.44500E+02 5.00000E+00
 -1       517 4.50000E+01 2.44500E+02 1.00000E+01
 -1       518 4.75000E+01 2.52000E+02 5.00000E+00
 -1       519 4.75000E+01 2.52000E+02 1.00000E+01
 -1       520 4.75000E+01 2.44500E+02 5.00000E+00
 -1       521 4.75000E+01 2.44500E+02 1.00000E+01
 -1       522 5.00000E+01 2.52000E+02 5.00000E+00
 -1       523 5.00000E+01 2.52000E+02 1.00000E+01
 -1       524 5.00000E+01 2.44500E+02 5.00000E+00
 -1       525 5.00000E+01 2.44500E+02 1.00000E+01
 -1       526 0.00000E+00 2.37000E+02 1.00000E+01
 -1       527 0.00000E+00 2.37000E+02 5.00000E+00
 -1       528 2.50000E+00 2.37000E+02 5.00000E+00
 -1       529 2.50000E+00 2.37000E+02 1.00000E+01
 -1       530 5.00000E+00 2.37000E+02 5.00000E+00
 -1       531 5.00000E+00 2.37000E+02 1.00000E+01
 -1       532 7.50000E+00 2.37000E+02 5.00000E+00
 -1       533 7.50000E+00 2.37000E+02 1.00000E+01
 -1       534 1.00000E+01 2.37000E+02 5.00000E+00
 -1       535 1.00000E+01 2.37000E+02 1.00000E+01
 -1       536 1.25000E+01 2.37000E+02 5.00000E+00
 -1       537 1.25000E+01 2.37000E+02 1.00000E+01
 -1       538 1.50000E+01 2.37000E+02 5.00000E+00
 -1       539 1.50000E+01 2.37000E+02 1.00000E+01
 -1       540 1.75000E+01 2.37000E+02 5.00000E+00
 -1       541 1.75000E+01 2.37000E+02 1.00000E+01
 -1       542 2.00000E+01 2.37000E+02 5.00000E+00
 -1       543 2.00000E+01 2.37000E+02 1.00000E+01
 -1       544 2.25000E+01 2.37000E+02 5.00000E+00
 -1       545 2.25000E+01 2.37000E+02 1.00000E+01
 -1       546 2.50000E+01 2.37000E+02 5.00000E+00
 -1       547 2.50000E+01 2.37000E+02 1.00000E+01
 -1       548 2.75000E+01 2.37000E+02 5.00000E+00
 -1       549 2.75000E+01 2.37000E+02 1.00000E+01
 -1       550 3.00000E+01 2.37000E+02 5.00000E+00
 -1       551 3.00000E+01 2.37000E+02 1.00000E+01
 -1       552 3.25000E+01 2.37000E+02 5.00000E+00
 -1       553 3.25000E+01 2.37000E+02 1.00000E+01
 -1       554 3.50000E+01 2.37000E+02 5.00000E+00
 -1       555 3.50000E+01 2.37000E+02 1.00000E+01
 -1       556 3.75000E+01 2.37000E+02 5.00000E+00
 -1       557 3.75000E+01 2.37000E+02 1.00000E+01
 -1       558 4.00000E+01 2.37000E+02 5.00000E+00
 -1       559 4.00000E+01 2.37000E+02 1.00000E+01
 -1       560 4.25000E+01 2.37000E+02 5.00000E+00
 -1       561 4.25000E+01 2.37000E+02 1.00000E+01
 -1       562 4.50000E+01 2.37000E+02 5.00000E+00
 -1       563 4.50000E+01 2.37000E+02 1.00000E+01
 -1       564 4.75000E+01 2.37000E+02 5.00000E+00
 -1       565 4.75000E+01 2.37000E+02 1.00000E+01
 -1       566 5.00000E+01 2.37000E+02 5.00000E+00
 -1       567 5.00000E+01 2.37000E+02 1.00000E+01
 -1       568 0.00000E+00 2.29500E+02 1.00000E+01
 -1       569 0.00000E+00 2.29500E+02 5.00000E+00
 -1       570 2.50000E+00 2.29500E+02 5.00000E+00
 -1       571 2.50000E+00 2.29500E+02 1.00000E+01
 -1       572 5.00000E+00 2.29500E+02 5.00000E+00
 -1       573 5.00000E+00 2.29500E+02 1.00000E+01
 -1       574 7.50000E+00 2.29500E+02 5.00000E+00
 -1       575 7.50000E+00 2.29500E+02 1.00000E+01
 -1       576 1.00000E+01 2.29500E+02 5.00000E+00
 -1       577 1.00000E+01 2.29500E+02 1.00000E+01
 -1       578 1.25000E+01 2.29500E+02 5.00000E+00
 -1       579 1.25000E+01 2.29500E+02 1.00000E+01
 -1       580 1.50000E+01 2.29500E+02 5.00000E+00
 -1       581 1.50000E+01 2.29500E+02 1.00000E+01
 -1       582 1.75000E+01 2.29500E+02 5.00000E+00
 -1       583 1.75000E+01 2.29500E+02 1.00000E+01