    1C
    1UUSER                                                              
    1UDATE              31.march.2022                                   
    1UTIME              02:31:39                                        
    1UHOST                                                              
    1UPGM               CalculiX                                        
    1UVERSION           Version 2.19                             
    1UCOMPILETIME       Wed Mar 30 06:04:19 EDT 2022                    
    1UDIR                                                               
    1UDBN                                                               
    1UMAT    1STEEL                                                     
    2C                         12899                                     1
 -1         1 0.00000E+00 0.00000E+00 0.00000E+00
 -1         2 1.95000E+01 0.00000E+00 0.00000E+00
 -1         3 3.00000E+01 0.00000E+00 0.00000E+00
 -1         4 3.20000E+01 2.00000E+00 0.00000E+00
 -1         5 5.00000E+01 2.00000E+00 0.00000E+00
 -1         6 5.00000E+01 2.40000E+01 0.00000E+00
 -1         7 0.00000E+00 2.40000E+01 0.00000E+00
 -1         9 4.50000E+01 1.10000E+01 0.00000E+00
 -1        10 4.00000E+01 1.60000E+01 0.00000E+00
 -1        11 3.50000E+01 1.10000E+01 0.00000E+00
 -1        12 4.00000E+01 6.00000E+00 0.00000E+00
 -1        13 0.00000E+00 0.00000E+00 1.00000E+01
 -1        14 1.95000E+01 0.00000E+00 1.00000E+01
 -1        15 3.00000E+01 0.00000E+00 1.00000E+01
 -1        16 3.20000E+01 2.00000E+00 1.00000E+01
 -1        17 5.00000E+01 2.00000E+00 1.00000E+01
 -1        18 5.00000E+01 2.40000E+01 1.00000E+01
 -1        19 0.00000E+00 2.40000E+01 1.00000E+01
 -1        20 4.50000E+01 1.10000E+01 1.00000E+01
 -1        22 4.00000E+01 6.00000E+00 1.00000E+01
 -1        23 3.50000E+01 1.10000E+01 1.00000E+01
 -1        24 4.00000E+01 1.60000E+01 1.00000E+01
 -1        25 4.31597E+00 0.00000E+00 0.00000E+00
 -1        26 7.69578E+00 0.00000E+00 0.00000E+00
 -1        27 1.03425E+01 0.00000E+00 0.00000E+00
 -1        28 1.24151E+01 0.00000E+00 0.00000E+00
 -1        29 1.40382E+01 0.00000E+00 0.00000E+00
 -1        30 1.53092E+01 0.00000E+00 0.00000E+00
 -1        31 1.63045E+01 0.00000E+00 0.00000E+00
 -1        32 1.70840E+01 0.00000E+00 0.00000E+00
 -1        33 1.76943E+01 0.00000E+00 0.00000E+00
 -1        34 1.81723E+01 0.00000E+00 0.00000E+00
 -1        35 1.85466E+01 0.00000E+00 0.00000E+00
 -1        36 1.88397E+01 0.00000E+00 0.00000E+00
 -1        37 1.90693E+01 0.00000E+00 0.00000E+00
 -1        38 1.92490E+01 0.00000E+00 0.00000E+00
 -1        39 1.93898E+01 0.00000E+00 0.00000E+00
 -1        40 2.15798E+00 0.00000E+00 0.00000E+00
 -1        41 6.00588E+00 0.00000E+00 0.00000E+00
 -1        42 9.01914E+00 0.00000E+00 0.00000E+00
 -1        43 1.13788E+01 0.00000E+00 0.00000E+00
 -1        44 1.32267E+01 0.00000E+00 0.00000E+00
 -1        45 1.46737E+01 0.00000E+00 0.00000E+00
 -1        46 1.58069E+01 0.00000E+00 0.00000E+00
 -1        47 1.66942E+01 0.00000E+00 0.00000E+00
 -1        48 1.73891E+01 0.00000E+00 0.00000E+00
 -1        49 1.79333E+01 0.00000E+00 0.00000E+00
 -1        50 1.83595E+01 0.00000E+00 0.00000E+00
 -1        51 1.86932E+01 0.00000E+00 0.00000E+00
 -1        52 1.89545E+01 0.00000E+00 0.00000E+00
 -1        53 1.91591E+01 0.00000E+00 0.00000E+00
 -1        54 1.93194E+01 0.00000E+00 0.00000E+00
 -1        55 1.94449E+01 0.00000E+00 0.00000E+00
 -1        56 1.96136E+01 0.00000E+00 0.00000E+00
 -1        57 1.97713E+01 0.00000E+00 0.00000E+00
 -1        58 1.99902E+01 0.00000E+00 0.00000E+00
 -1        59 2.02941E+01 0.00000E+00 0.00000E+00
 -1        60 2.07159E+01 0.00000E+00 0.00000E+00
 -1        61 2.13014E+01 0.00000E+00 0.00000E+00
 -1        62 2.21141E+01 0.00000E+00 0.00000E+00
 -1        63 2.32423E+01 0.00000E+00 0.00000E+00
 -1        64 2.48084E+01 0.00000E+00 0.00000E+00
 -1        65 2.69823E+01 0.00000E+00 0.00000E+00
 -1        66 1.95568E+01 0.00000E+00 0.00000E+00
 -1        67 1.96925E+01 0.00000E+00 0.00000E+00
 -1        68 1.98808E+01 0.00000E+00 0.00000E+00
 -1        69 2.01421E+01 0.00000E+00 0.00000E+00
 -1        70 2.05050E+01 0.00000E+00 0.00000E+00
 -1        71 2.10086E+01 0.00000E+00 0.00000E+00
 -1        72 2.17078E+01 0.00000E+00 0.00000E+00
 -1        73 2.26782E+01 0.00000E+00 0.00000E+00
 -1        74 2.40254E+01 0.00000E+00 0.00000E+00
 -1        75 2.58954E+01 0.00000E+00 0.00000E+00
 -1        76 2.84912E+01 0.00000E+00 0.00000E+00
 -1        77 3.10000E+01 1.00000E+00 0.00000E+00
 -1        78 3.65000E+01 2.00000E+00 0.00000E+00
 -1        79 4.10000E+01 2.00000E+00 0.00000E+00
 -1        80 4.55000E+01 2.00000E+00 0.00000E+00
 -1        81 3.42500E+01 2.00000E+00 0.00000E+00
 -1        82 3.87500E+01 2.00000E+00 0.00000E+00
 -1        83 4.32500E+01 2.00000E+00 0.00000E+00
 -1        84 4.77500E+01 2.00000E+00 0.00000E+00
 -1        85 5.00000E+01 7.50000E+00 0.00000E+00
 -1        86 5.00000E+01 1.30000E+01 0.00000E+00
 -1        87 5.00000E+01 1.85000E+01 0.00000E+00
 -1        88 5.00000E+01 4.75000E+00 0.00000E+00
 -1        89 5.00000E+01 1.02500E+01 0.00000E+00
 -1        90 5.00000E+01 1.57500E+01 0.00000E+00
 -1        91 5.00000E+01 2.12500E+01 0.00000E+00
 -1        92 4.44444E+01 2.40000E+01 0.00000E+00
 -1        93 3.88889E+01 2.40000E+01 0.00000E+00
 -1        94 3.33333E+01 2.40000E+01 0.00000E+00
 -1        95 2.77778E+01 2.40000E+01 0.00000E+00
 -1        96 2.22222E+01 2.40000E+01 0.00000E+00
 -1        97 1.66667E+01 2.40000E+01 0.00000E+00
 -1        98 1.11111E+01 2.40000E+01 0.00000E+00
 -1        99 5.55556E+00 2.40000E+01 0.00000E+00
 -1       100 4.72222E+01 2.40000E+01 0.00000E+00
 -1       101 4.16667E+01 2.40000E+01 0.00000E+00
 -1       102 3.61111E+01 2.40000E+01 0.00000E+00
 -1       103 3.05556E+01 2.40000E+01 0.00000E+00
 -1       104 2.50000E+01 2.40000E+01 0.00000E+00
 -1       105 1.94444E+01 2.40000E+01 0.00000E+00
 -1       106 1.38889E+01 2.40000E+01 0.00000E+00
 -1       107 8.33333E+00 2.40000E+01 0.00000E+00
 -1       108 2.77778E+00 2.40000E+01 0.00000E+00
 -1       109 0.00000E+00 1.85240E+01 0.00000E+00
 -1       110 0.00000E+00 1.13294E+01 0.00000E+00
 -1       111 0.00000E+00 4.85832E+00 0.00000E+00
 -1       112 0.00000E+00 2.12620E+01 0.00000E+00
 -1       113 0.00000E+00 1.49267E+01 0.00000E+00
 -1       114 0.00000E+00 8.09388E+00 0.00000E+00
 -1       115 0.00000E+00 2.42916E+00 0.00000E+00
 -1       116 4.35355E+01 1.45355E+01 0.00000E+00
 -1       117 4.46194E+01 1.29134E+01 0.00000E+00
 -1       118 4.19134E+01 1.56194E+01 0.00000E+00
 -1       119 3.64645E+01 1.45355E+01 0.00000E+00
 -1       120 3.80866E+01 1.56194E+01 0.00000E+00
 -1       121 3.53806E+01 1.29134E+01 0.00000E+00
 -1       122 3.64645E+01 7.46447E+00 0.00000E+00
 -1       123 3.53806E+01 9.08658E+00 0.00000E+00
 -1       124 3.80866E+01 6.38060E+00 0.00000E+00
 -1       125 4.35355E+01 7.46447E+00 0.00000E+00
 -1       126 4.19134E+01 6.38060E+00 0.00000E+00
 -1       127 4.46194E+01 9.08658E+00 0.00000E+00
 -1       128 4.31597E+00 0.00000E+00 1.00000E+01
 -1       129 7.69578E+00 0.00000E+00 1.00000E+01
 -1       130 1.03425E+01 0.00000E+00 1.00000E+01
 -1       131 1.24151E+01 0.00000E+00 1.00000E+01
 -1       132 1.40382E+01 0.00000E+00 1.00000E+01
 -1       133 1.53092E+01 0.00000E+00 1.00000E+01
 -1       134 1.63045E+01 0.00000E+00 1.00000E+01
 -1       135 1.70840E+01 0.00000E+00 1.00000E+01
 -1       136 1.76943E+01 0.00000E+00 1.00000E+01
 -1       137 1.81723E+01 0.00000E+00 1.00000E+01
 -1       138 1.85466E+01 0.00000E+00 1.00000E+01
 -1       139 1.88397E+01 0.00000E+00 1.00000E+01
 -1       140 1.90693E+01 0.00000E+00 1.00000E+01
 -1       141 1.92490E+01 0.00000E+00 1.00000E+01
 -1       142 1.93898E+01 0.00000E+00 1.00000E+01
 -1       143 2.15798E+00 0.00000E+00 1.00000E+01
 -1       144 6.00588E+00 0.00000E+00 1.00000E+01
 -1       145 9.01914E+00 0.00000E+00 1.00000E+01
 -1       146 1.13788E+01 0.00000E+00 1.00000E+01
 -1       147 1.32267E+01 0.00000E+00 1.00000E+01
 -1       148 1.46737E+01 0.00000E+00 1.00000E+01
 -1       149 1.58069E+01 0.00000E+00 1.00000E+01
 -1       150 1.66942E+01 0.00000E+00 1.00000E+01
 -1       151 1.73891E+01 0.00000E+00 1.00000E+01
 -1       152 1.79333E+01 0.00000E+00 1.00000E+01
 -1       153 1.83595E+01 0.00000E+00 1.00000E+01
 -1       154 1.86932E+01 0.00000E+00 1.00000E+01
 -1       155 1.89545E+01 0.00000E+00 1.00000E+01
 -1       156 1.91591E+01 0.00000E+00 1.00000E+01
 -1       157 1.93194E+01 0.00000E+00 1.00000E+01
 -1       158 1.94449E+01 0.00000E+00 1.00000E+01
 -1       159 1.96136E+01 0.00000E+00 1.00000E+01
 -1       160 1.97713E+01 0.00000E+00 1.00000E+01
 -1       161 1.99902E+01 0.00000E+00 1.00000E+01
 -1       162 2.02941E+01 0.00000E+00 1.00000E+01
 -1       163 2.07159E+01 0.00000E+00 1.00000E+01
 -1       164 2.13014E+01 0.00000E+00 1.00000E+01
 -1       165 2.21141E+01 0.00000E+00 1.00000E+01
 -1       166 2.32423E+01 0.00000E+00 1.00000E+01
 -1       167 2.48084E+01 0.00000E+00 1.00000E+01
 -1       168 2.69823E+01 0.00000E+00 1.00000E+01
 -1       169 1.95568E+01 0.00000E+00 1.00000E+01
 -1       170 1.96925E+01 0.00000E+00 1.00000E+01
 -1       171 1.98808E+01 0.00000E+00 1.00000E+01
 -1       172 2.01421E+01 0.00000E+00 1.00000E+01
 -1       173 2.05050E+01 0.00000E+00 1.00000E+01
 -1       174 2.10086E+01 0.00000E+00 1.00000E+01
 -1       175 2.17078E+01 0.00000E+00 1.00000E+01
 -1       176 2.26782E+01 0.00000E+00 1.00000E+01
 -1       177 2.40254E+01 0.00000E+00 1.00000E+01
 -1       178 2.58954E+01 0.00000E+00 1.00000E+01
 -1       179 2.84912E+01 0.00000E+00 1.00000E+01
 -1       180 3.10000E+01 1.00000E+00 1.00000E+01
 -1       181 3.65000E+01 2.00000E+00 1.00000E+01
 -1       182 4.10000E+01 2.00000E+00 1.00000E+01
 -1       183 4.55000E+01 2.00000E+00 1.00000E+01
 -1       184 3.42500E+01 2.00000E+00 1.00000E+01
 -1       185 3.87500E+01 2.00000E+00 1.00000E+01
 -1       186 4.32500E+01 2.00000E+00 1.00000E+01
 -1       187 4.77500E+01 2.00000E+00 1.00000E+01
 -1       188 5.00000E+01 7.50000E+00 1.00000E+01
 -1       189 5.00000E+01 1.30000E+01 1.00000E+01
 -1       190 5.00000E+01 1.85000E+01 1.00000E+01
 -1       191 5.00000E+01 4.75000E+00 1.00000E+01
 -1       192 5.00000E+01 1.02500E+01 1.00000E+01
 -1       193 5.00000E+01 1.57500E+01 1.00000E+01
 -1       194 5.00000E+01 2.12500E+01 1.00000E+01
 -1       195 4.44444E+01 2.40000E+01 1.00000E+01
 -1       196 3.88889E+01 2.40000E+01 1.00000E+01
 -1       197 3.33333E+01 2.40000E+01 1.00000E+01
 -1       198 2.77778E+01 2.40000E+01 1.00000E+01
 -1       199 2.22222E+01 2.40000E+01 1.00000E+01
 -1       200 1.66667E+01 2.40000E+01 1.00000E+01
 -1       201 1.11111E+01 2.40000E+01 1.00000E+01
 -1       202 5.55556E+00 2.40000E+01 1.00000E+01
 -1       203 4.72222E+01 2.40000E+01 1.00000E+01
 -1       204 4.16667E+01 2.40000E+01 1.00000E+01
 -1       205 3.61111E+01 2.40000E+01 1.00000E+01
 -1       206 3.05556E+01 2.40000E+01 1.00000E+01
 -1       207 2.50000E+01 2.40000E+01 1.00000E+01
 -1       208 1.94444E+01 2.40000E+01 1.00000E+01
 -1       209 1.38889E+01 2.40000E+01 1.00000E+01
 -1       210 8.33333E+00 2.40000E+01 1.00000E+01
 -1       211 2.77778E+00 2.40000E+01 1.00000E+01
 -1       212 0.00000E+00 1.85240E+01 1.00000E+01
 -1       213 0.00000E+00 1.13294E+01 1.00000E+01
 -1       214 0.00000E+00 4.85832E+00 1.00000E+01
 -1       215 0.00000E+00 2.12620E+01 1.00000E+01
 -1       216 0.00000E+00 1.49267E+01 1.00000E+01
 -1       217 0.00000E+00 8.09388E+00 1.00000E+01
 -1       218 0.00000E+00 2.42916E+00 1.00000E+01
 -1       219 4.35355E+01 7.46447E+00 1.00000E+01
 -1       220 4.46194E+01 9.08658E+00 1.00000E+01
 -1       221 4.19134E+01 6.38060E+00 1.00000E+01
 -1       222 3.64645E+01 7.46447E+00 1.00000E+01
 -1       223 3.80866E+01 6.38060E+00 1.00000E+01
 -1       224 3.53806E+01 9.08658E+00 1.00000E+01
 -1       225 3.64645E+01 1.45355E+01 1.00000E+01
 -1       226 3.53806E+01 1.29134E+01 1.00000E+01
 -1       227 3.80866E+01 1.56194E+01 1.00000E+01
 -1       228 4.35355E+01 1.45355E+01 1.00000E+01
 -1       229 4.19134E+01 1.56194E+01 1.00000E+01
 -1       230 4.46194E+01 1.29134E+01 1.00000E+01
 -1       231 0.00000E+00 0.00000E+00 5.00000E+00
 -1       232 0.00000E+00 0.00000E+00 2.50000E+00
 -1       233 0.00000E+00 0.00000E+00 7.50000E+00
 -1       234 1.95000E+01 0.00000E+00 1.00000E-01
 -1       235 1.95000E+01 0.00000E+00 2.00000E-01
 -1       236 1.95000E+01 0.00000E+00 3.00000E-01
 -1       237 1.95000E+01 0.00000E+00 4.00000E-01
 -1       238 1.95000E+01 0.00000E+00 5.00000E-01
 -1       239 1.95000E+01 0.00000E+00 6.00000E-01
 -1       240 1.95000E+01 0.00000E+00 7.00000E-01
 -1       241 1.95000E+01 0.00000E+00 8.00000E-01
 -1       242 1.95000E+01 0.00000E+00 9.00000E-01
 -1       243 1.95000E+01 0.00000E+00 1.00000E+00
 -1       244 1.95000E+01 0.00000E+00 1.10000E+00
 -1       245 1.95000E+01 0.00000E+00 1.20000E+00
 -1       246 1.95000E+01 0.00000E+00 1.30000E+00
 -1       247 1.95000E+01 0.00000E+00 1.40000E+00
 -1       248 1.95000E+01 0.00000E+00 1.50000E+00
 -1       249 1.95000E+01 0.00000E+00 1.60000E+00
 -1       250 1.95000E+01 0.00000E+00 1.70000E+00
 -1       251 1.95000E+01 0.00000E+00 1.80000E+00
 -1       252 1.95000E+01 0.00000E+00 1.90000E+00
 -1       253 1.95000E+01 0.00000E+00 2.00000E+00
 -1       254 1.95000E+01 0.00000E+00 2.10000E+00
 -1       255 1.95000E+01 0.00000E+00 2.20000E+00
 -1       256 1.95000E+01 0.00000E+00 2.30000E+00
 -1       257 1.95000E+01 0.00000E+00 2.40000E+00
 -1       258 1.95000E+01 0.00000E+00 2.50000E+00
 -1       259 1.95000E+01 0.00000E+00 2.60000E+00
 -1       260 1.95000E+01 0.00000E+00 2.70000E+00
 -1       261 1.95000E+01 0.00000E+00 2.80000E+00
 -1       262 1.95000E+01 0.00000E+00 2.90000E+00
 -1       263 1.95000E+01 0.00000E+00 3.00000E+00
 -1       264 1.95000E+01 0.00000E+00 3.10000E+00
 -1       265 1.95000E+01 0.00000E+00 3.20000E+00
 -1       266 1.95000E+01 0.00000E+00 3.30000E+00
 -1       267 1.95000E+01 0.00000E+00 3.40000E+00
 -1       268 1.95000E+01 0.00000E+00 3.50000E+00
 -1       269 1.95000E+01 0.00000E+00 3.60000E+00
 -1       270 1.95000E+01 0.00000E+00 3.70000E+00
 -1       271 1.95000E+01 0.00000E+00 3.80000E+00
 -1       272 1.95000E+01 0.00000E+00 3.90000E+00
 -1       273 1.95000E+01 0.00000E+00 4.00000E+00
 -1       274 1.95000E+01 0.00000E+00 4.10000E+00
 -1       275 1.95000E+01 0.00000E+00 4.20000E+00
 -1       276 1.95000E+01 0.00000E+00 4.30000E+00
 -1       277 1.95000E+01 0.00000E+00 4.40000E+00
 -1       278 1.95000E+01 0.00000E+00 4.50000E+00
 -1       279 1.95000E+01 0.00000E+00 4.60000E+00
 -1       280 1.95000E+01 0.00000E+00 4.70000E+00
 -1       281 1.95000E+01 0.00000E+00 4.80000E+00
 -1       282 1.95000E+01 0.00000E+00 4.90000E+00
 -1       283 1.95000E+01 0.00000E+00 5.00000E+00
 -1       284 1.95000E+01 0.00000E+00 5.10000E+00
 -1       285 1.95000E+01 0.00000E+00 5.20000E+00
 -1       286 1.95000E+01 0.00000E+00 5.30000E+00
 -1       287 1.95000E+01 0.00000E+00 5.40000E+00
 -1       288 1.95000E+01 0.00000E+00 5.50000E+00
 -1       289 1.95000E+01 0.00000E+00 5.60000E+00
 -1       290 1.95000E+01 0.00000E+00 5.70000E+00
 -1       291 1.95000E+01 0.00000E+00 5.80000E+00
 -1       292 1.95000E+01 0.00000E+00 5.90000E+00
 -1       293 1.95000E+01 0.00000E+00 6.00000E+00
 -1       294 1.95000E+01 0.00000E+00 6.10000E+00
 -1       295 1.95000E+01 0.00000E+00 6.20000E+00
 -1       296 1.95000E+01 0.00000E+00 6.30000E+00
 -1       297 1.95000E+01 0.00000E+00 6.40000E+00
 -1       298 1.95000E+01 0.00000E+00 6.50000E+00
 -1       299 1.95000E+01 0.00000E+00 6.60000E+00
 -1       300 1.95000E+01 0.00000E+00 6.70000E+00
 -1       301 1.95000E+01 0.00000E+00 6.80000E+00
 -1       302 1.95000E+01 0.00000E+00 6.90000E+00
 -1       303 1.95000E+01 0.00000E+00 7.00000E+00
 -1       304 1.95000E+01 0.00000E+00 7.10000E+00
 -1       305 1.95000E+01 0.00000E+00 7.20000E+00
 -1       306 1.95000E+01 0.00000E+00 7.30000E+00
 -1       307 1.95000E+01 0.00000E+00 7.40000E+00
 -1       308 1.95000E+01 0.00000E+00 7.50000E+00
 -1       309 1.95000E+01 0.00000E+00 7.60000E+00
 -1       310 1.95000E+01 0.00000E+00 7.70000E+00
 -1       311 1.95000E+01 0.00000E+00 7.80000E+00
 -1       312 1.95000E+01 0.00000E+00 7.90000E+00
 -1       313 1.95000E+01 0.00000E+00 8.00000E+00
 -1       314 1.95000E+01 0.00000E+00 8.10000E+00
 -1       315 1.95000E+01 0.00000E+00 8.20000E+00
 -1       316 1.95000E+01 0.00000E+00 8.30000E+00
 -1       317 1.95000E+01 0.00000E+00 8.40000E+00
 -1       318 1.95000E+01 0.00000E+00 8.50000E+00
 -1       319 1.95000E+01 0.00000E+00 8.60000E+00
 -1       320 1.95000E+01 0.00000E+00 8.70000E+00
 -1       321 1.95000E+01 0.00000E+00 8.80000E+00
 -1       322 1.95000E+01 0.00000E+00 8.90000E+00
 -1       323 1.95000E+01 0.00000E+00 9.00000E+00
 -1       324 1.95000E+01 0.00000E+00 9.10000E+00
 -1       325 1.95000E+01 0.00000E+00 9.20000E+00
 -1       326 1.95000E+01 0.00000E+00 9.30000E+00
 -1       327 1.95000E+01 0.00000E+00 9.40000E+00
 -1       328 1.95000E+01 0.00000E+00 9.50000E+00
 -1       329 1.95000E+01 0.00000E+00 9.60000E+00
 -1       330 1.95000E+01 0.00000E+00 9.70000E+00
 -1       331 1.95000E+01 0.00000E+00 9.80000E+00
 -1       332 1.95000E+01 0.00000E+00 9.90000E+00
 -1       333 1.95000E+01 0.00000E+00 5.00000E-02
 -1       334 1.95000E+01 0.00000E+00 1.50000E-01
 -1       335 1.95000E+01 0.00000E+00 2.50000E-01
 -1       336 1.95000E+01 0.00000E+00 3.50000E-01
 -1       337 1.95000E+01 0.00000E+00 4.50000E-01
 -1       338 1.95000E+01 0.00000E+00 5.50000E-01
 -1       339 1.95000E+01 0.00000E+00 6.50000E-01
 -1       340 1.95000E+01 0.00000E+00 7.50000E-01
 -1       341 1.95000E+01 0.00000E+00 8.50000E-01
 -1       342 1.95000E+01 0.00000E+00 9.50000E-01
 -1       343 1.95000E+01 0.00000E+00 1.05000E+00
 -1       344 1.95000E+01 0.00000E+00 1.15000E+00
 -1       345 1.95000E+01 0.00000E+00 1.25000E+00
 -1       346 1.95000E+01 0.00000E+00 1.35000E+00
 -1       347 1.95000E+01 0.00000E+00 1.45000E+00
 -1       348 1.95000E+01 0.00000E+00 1.55000E+00
 -1       349 1.95000E+01 0.00000E+00 1.65000E+00
 -1       350 1.95000E+01 0.00000E+00 1.75000E+00
 -1       351 1.95000E+01 0.00000E+00 1.85000E+00
 -1       352 1.95000E+01 0.00000E+00 1.95000E+00
 -1       353 1.95000E+01 0.00000E+00 2.05000E+00
 -1       354 1.95000E+01 0.00000E+00 2.15000E+00
 -1       355 1.95000E+01 0.00000E+00 2.25000E+00
 -1       356 1.95000E+01 0.00000E+00 2.35000E+00
 -1       357 1.95000E+01 0.00000E+00 2.45000E+00
 -1       358 1.95000E+01 0.00000E+00 2.55000E+00
 -1       359 1.95000E+01 0.00000E+00 2.65000E+00
 -1       360 1.95000E+01 0.00000E+00 2.75000E+00
 -1       361 1.95000E+01 0.00000E+00 2.85000E+00
 -1       362 1.95000E+01 0.00000E+00 2.95000E+00
 -1       363 1.95000E+01 0.00000E+00 3.05000E+00
 -1       364 1.95000E+01 0.00000E+00 3.15000E+00
 -1       365 1.95000E+01 0.00000E+00 3.25000E+00
 -1       366 1.95000E+01 0.00000E+00 3.35000E+00
 -1       367 1.95000E+01 0.00000E+00 3.45000E+00
 -1       368 1.95000E+01 0.00000E+00 3.55000E+00
 -1       369 1.95000E+01 0.00000E+00 3.65000E+00
 -1       370 1.95000E+01 0.00000E+00 3.75000E+00
 -1       371 1.95000E+01 0.00000E+00 3.85000E+00
 -1       372 1.95000E+01 0.00000E+00 3.95000E+00
 -1       373 1.95000E+01 0.00000E+00 4.05000E+00
 -1       374 1.95000E+01 0.00000E+00 4.15000E+00
 -1       375 1.95000E+01 0.00000E+00 4.25000E+00
 -1       376 1.95000E+01 0.00000E+00 4.35000E+00
 -1       377 1.95000E+01 0.00000E+00 4.45000E+00
 -1       378 1.95000E+01 0.00000E+00 4.55000E+00
 -1       379 1.95000E+01 0.00000E+00 4.65000E+00
 -1       380 1.95000E+01 0.00000E+00 4.75000E+00
 -1       381 1.95000E+01 0.00000E+00 4.85000E+00
 -1       382 1.95000E+01 0.00000E+00 4.95000E+00
 -1       383 1.95000E+01 0.00000E+00 5.05000E+00
 -1       384 1.95000E+01 0.00000E+00 5.15000E+00
 -1       385 1.95000E+01 0.00000E+00 5.25000E+00
 -1       386 1.95000E+01 0.00000E+00 5.35000E+00
 -1       387 1.95000E+01 0.00000E+00 5.45000E+00
 -1       388 1.95000E+01 0.00000E+00 5.55000E+00
 -1       389 1.95000E+01 0.00000E+00 5.65000E+00
 -1       390 1.95000E+01 0.00000E+00 5.75000E+00
 -1       391 1.95000E+01 0.00000E+00 5.85000E+00
 -1       392 1.95000E+01 0.00000E+00 5.95000E+00
 -1       393 1.95000E+01 0.00000E+00 6.05000E+00
 -1       394 1.95000E+01 0.00000E+00 6.15000E+00
 -1       395 1.95000E+01 0.00000E+00 6.25000E+00
 -1       396 1.95000E+01 0.00000E+00 6.35000E+00
 -1       397 1.95000E+01 0.00000E+00 6.45000E+00
 -1       398 1.95000E+01 0.00000E+00 6.55000E+00
 -1       399 1.95000E+01 0.00000E+00 6.65000E+00
 -1       400 1.95000E+01 0.00000E+00 6.75000E+00
 -1       401 1.95000E+01 0.00000E+00 6.85000E+00
 -1       402 1.95000E+01 0.00000E+00 6.95000E+00
 -1       403 1.95000E+01 0.00000E+00 7.05000E+00
 -1       404 1.95000E+01 0.00000E+00 7.15000E+00
 -1       405 1.95000E+01 0.00000E+00 7.25000E+00
 -1       406 1.95000E+01 0.00000E+00 7.35000E+00
 -1       407 1.95000E+01 0.00000E+00 7.45000E+00
 -1       408 1.95000E+01 0.00000E+00 7.55000E+00
 -1       409 1.95000E+01 0.00000E+00 7.65000E+00
 -1       410 1.95000E+01 0.00000E+00 7.75000E+00
 -1       411 1.95000E+01 0.00000E+00 7.85000E+00
 -1       412 1.95000E+01 0.00000E+00 7.95000E+00
 -1       413 1.95000E+01 0.00000E+00 8.05000E+00
 -1       414 1.95000E+01 0.00000E+00 8.15000E+00
 -1       415 1.95000E+01 0.00000E+00 8.25000E+00
 -1       416 1.95000E+01 0.00000E+00 8.35000E+00
 -1       417 1.95000E+01 0.00000E+00 8.45000E+00
 -1       418 1.95000E+01 0.00000E+00 8.55000E+00
 -1       419 1.95000E+01 0.00000E+00 8.65000E+00
 -1       420 1.95000E+01 0.00000E+00 8.75000E+00
 -1       421 1.95000E+01 0.00000E+00 8.85000E+00
 -1       422 1.95000E+01 0.00000E+00 8.95000E+00
 -1       423 1.95000E+01 0.00000E+00 9.05000E+00
 -1       424 1.95000E+01 0.00000E+00 9.15000E+00
 -1       425 1.95000E+01 0.00000E+00 9.25000E+00
 -1       426 1.95000E+01 0.00000E+00 9.35000E+00
 -1       427 1.95000E+01 0.00000E+00 9.45000E+00
 -1       428 1.95000E+01 0.00000E+00 9.55000E+00
 -1       429 1.95000E+01 0.00000E+00 9.65000E+00
 -1       430 1.95000E+01 0.00000E+00 9.75000E+00
 -1       431 1.95000E+01 0.00000E+00 9.85000E+00
 -1       432 1.95000E+01 0.00000E+00 9.95000E+00
 -1       433 3.00000E+01 0.00000E+00 5.00000E+00
 -1       434 3.00000E+01 0.00000E+00 2.50000E+00
 -1       435 3.00000E+01 0.00000E+00 7.50000E+00
 -1       436 3.20000E+01 2.00000E+00 5.00000E+00
 -1       437 3.20000E+01 2.00000E+00 2.50000E+00
 -1       438 3.20000E+01 2.00000E+00 7.50000E+00
 -1       439 5.00000E+01 2.00000E+00 5.00000E+00
 -1       440 5.00000E+01 2.00000E+00 2.50000E+00
 -1       441 5.00000E+01 2.00000E+00 7.50000E+00
 -1       442 5.00000E+01 2.40000E+01 5.00000E+00
 -1       443 5.00000E+01 2.40000E+01 2.50000E+00
 -1       444 5.00000E+01 2.40000E+01 7.50000E+00
 -1       445 0.00000E+00 2.40000E+01 5.00000E+00
 -1       446 0.00000E+00 2.40000E+01 2.50000E+00
 -1       447 0.00000E+00 2.40000E+01 7.50000E+00
 -1       448 4.50000E+01 1.10000E+01 5.00000E+00
 -1       449 4.50000E+01 1.10000E+01 2.50000E+00
 -1       450 4.50000E+01 1.10000E+01 7.50000E+00
 -1       451 4.00000E+01 6.00000E+00 5.00000E+00
 -1       452 4.00000E+01 6.00000E+00 2.50000E+00
 -1       453 4.00000E+01 6.00000E+00 7.50000E+00
 -1       454 3.50000E+01 1.10000E+01 5.00000E+00
 -1       455 3.50000E+01 1.10000E+01 2.50000E+00
 -1       456 3.50000E+01 1.10000E+01 7.50000E+00
 -1       457 4.00000E+01 1.60000E+01 5.00000E+00
 -1       458 4.00000E+01 1.60000E+01 2.50000E+00
 -1       459 4.00000E+01 1.60000E+01 7.50000E+00
 -1       460 1.89545E+01 1.77225E-01 0.00000E+00
 -1       461 1.73964E+01 4.77292E-01 0.00000E+00
 -1       462 1.45773E+01 1.12444E+00 0.00000E+00
 -1       463 2.16765E+01 5.95512E-01 0.00000E+00
 -1       464 2.01141E+01 2.14713E-01 0.00000E+00
 -1       465 1.94379E+01 1.00939E-01 0.00000E+00
 -1       466 2.58954E+01 1.61947E+00 0.00000E+00
 -1       467 1.13788E+01 1.60028E+00 0.00000E+00
 -1       468 1.83595E+01 2.89000E-01 0.00000E+00
 -1       469 1.94131E+01 1.88897E+01 0.00000E+00
 -1       470 1.96710E+01 1.14518E-01 0.00000E+00
 -1       471 1.95918E+01 3.29145E-01 0.00000E+00
 -1       472 3.28569E+01 1.47957E+01 0.00000E+00
 -1       473 3.11184E+01 1.09423E+01 0.00000E+00
 -1       474 2.88049E+01 1.35641E+01 0.00000E+00
 -1       475 2.73320E+01 1.02879E+01 0.00000E+00
 -1       476 4.22126E+00 8.34430E+00 0.00000E+00
 -1       477 8.63891E+00 1.84317E+01 0.00000E+00
 -1       478 2.52478E+01 1.31260E+01 0.00000E+00
 -1       479 2.40397E+01 9.89756E+00 0.00000E+00
 -1       480 2.58309E+01 7.51548E+00 0.00000E+00
 -1       481 2.29729E+01 7.22879E+00 0.00000E+00
 -1       482 2.13541E+01 9.43911E+00 0.00000E+00
 -1       483 2.04715E+01 6.64850E+00 0.00000E+00
 -1       484 1.87927E+01 8.80029E+00 0.00000E+00
 -1       485 1.79420E+01 6.12630E+00 0.00000E+00
 -1       486 1.60796E+01 8.51853E+00 0.00000E+00
 -1       487 1.95652E+01 4.83298E+00 0.00000E+00
 -1       488 1.50298E+01 5.89036E+00 0.00000E+00
 -1       489 1.30484E+01 8.27533E+00 0.00000E+00
 -1       490 1.42230E+01 1.13793E+01 0.00000E+00
 -1       491 1.93633E+01 1.18053E+01 0.00000E+00
 -1       492 2.44388E+01 5.27254E+00 0.00000E+00
 -1       493 2.69842E+01 5.26830E+00 0.00000E+00
 -1       494 1.07513E+01 1.09556E+01 0.00000E+00
 -1       495 2.64543E+01 1.65844E+01 0.00000E+00
 -1       496 2.39113E+01 1.11659E+00 0.00000E+00
 -1       497 2.22690E+01 5.10481E+00 0.00000E+00
 -1       498 1.19097E+01 5.51515E+00 0.00000E+00
 -1       499 6.05718E+00 2.50480E+00 0.00000E+00
 -1       500 2.78980E+01 1.69507E+00 0.00000E+00
 -1       501 2.34339E+01 3.42657E+00 0.00000E+00
 -1       502 2.15227E+01 3.16490E+00 0.00000E+00
 -1       503 2.26113E+01 1.96899E+00 0.00000E+00
 -1       504 1.68049E+01 4.09522E+00 0.00000E+00
 -1       505 1.86663E+01 2.67277E+00 0.00000E+00
 -1       506 1.49360E+01 3.53693E+00 0.00000E+00
 -1       507 2.10086E+01 4.36178E-01 0.00000E+00
 -1       508 2.12252E+01 1.16160E+00 0.00000E+00
 -1       509 2.05262E+01 9.56956E-01 0.00000E+00
 -1       510 2.06571E+01 1.60043E+00 0.00000E+00
 -1       511 1.98579E+01 1.53903E+00 0.00000E+00
 -1       512 2.02968E+01 2.51165E+00 0.00000E+00
 -1       513 3.62076E+01 1.89833E+01 0.00000E+00
 -1       514 1.64920E+01 2.57649E+00 0.00000E+00
 -1       515 2.94361E+01 7.49765E+00 0.00000E+00
 -1       516 2.95673E+01 4.82936E+00 0.00000E+00
 -1       517 3.22913E+01 6.19594E+00 0.00000E+00
 -1       518 1.20731E+01 1.47295E+01 0.00000E+00
 -1       519 1.57699E+01 8.91914E-01 0.00000E+00
 -1       520 4.31386E+01 1.84370E+01 0.00000E+00
 -1       521 1.92187E+01 3.50287E-01 0.00000E+00
 -1       522 1.93865E+01 6.15523E-01 0.00000E+00
 -1       523 1.89910E+01 6.98160E-01 0.00000E+00
 -1       524 2.25804E+01 8.32014E-01 0.00000E+00
 -1       525 4.93811E+00 1.40718E+01 0.00000E+00
 -1       526 1.66170E+01 1.43777E+01 0.00000E+00
 -1       527 1.92527E+01 1.09032E+00 0.00000E+00
 -1       528 1.85641E+01 1.05196E+00 0.00000E+00
 -1       529 1.89698E+01 1.76459E+00 0.00000E+00
 -1       530 1.81826E+01 1.77100E+00 0.00000E+00
 -1       531 1.40866E+01 1.90714E+01 0.00000E+00
 -1       532 3.20691E+01 1.89126E+01 0.00000E+00
 -1       533 9.01914E+00 1.99267E+00 0.00000E+00
 -1       534 8.01754E+00 5.29471E+00 0.00000E+00
 -1       535 1.79333E+01 3.59863E-01 0.00000E+00
 -1       536 1.77853E+01 9.46867E-01 0.00000E+00
 -1       537 1.71615E+01 1.08073E+00 0.00000E+00
 -1       538 1.31906E+01 1.41754E+00 0.00000E+00
 -1       539 1.86928E+01 2.26126E-01 0.00000E+00
 -1       540 1.98831E+01 6.11863E-01 0.00000E+00
 -1       541 1.85934E+01 5.53059E-01 0.00000E+00
 -1       542 2.53921E+01 3.57149E+00 0.00000E+00
 -1       543 2.29591E+01 1.58888E+01 0.00000E+00
 -1       544 2.04237E+01 3.69952E-01 0.00000E+00
 -1       545 1.28228E+01 3.28461E+00 0.00000E+00
 -1       546 1.98369E+01 2.11706E-01 0.00000E+00
 -1       547 2.43008E+01 1.99388E+01 0.00000E+00
 -1       548 2.14855E+01 1.94876E+00 0.00000E+00
 -1       549 2.03159E+01 3.76802E+00 0.00000E+00
 -1       550 1.66929E+01 6.78790E-01 0.00000E+00
 -1       551 2.22768E+01 1.24026E+01 0.00000E+00
 -1       552 3.42500E+01 4.08572E+00 0.00000E+00
 -1       553 1.82341E+01 6.44650E-01 0.00000E+00
 -1       554 1.53079E+01 2.04318E+00 0.00000E+00
 -1       555 1.02576E+01 7.99819E+00 0.00000E+00
 -1       556 2.90293E+00 2.62043E+00 0.00000E+00
 -1       557 1.06296E+01 3.53748E+00 0.00000E+00
 -1       558 4.65560E+01 1.68631E+01 0.00000E+00
 -1       559 1.91591E+01 1.38784E-01 0.00000E+00
 -1       560 2.07719E+01 5.02836E+00 0.00000E+00
 -1       561 1.76706E+01 2.83319E+00 0.00000E+00
 -1       562 2.01259E+01 1.46728E+01 0.00000E+00
 -1       563 4.08017E+00 1.99407E+01 0.00000E+00
 -1       564 2.83708E+01 2.01025E+01 0.00000E+00
 -1       565 3.33333E+01 8.76287E+00 0.00000E+00
 -1       566 2.19270E+01 1.31099E+00 0.00000E+00
 -1       567 1.88698E+01 4.24197E-01 0.00000E+00
 -1       568 2.71357E+01 3.41167E+00 0.00000E+00
 -1       569 2.97422E+01 2.67880E+00 0.00000E+00
 -1       570 4.31721E+01 4.53331E+00 0.00000E+00
 -1       571 4.64668E+01 5.29447E+00 0.00000E+00
 -1       572 4.65932E+01 8.26902E+00 0.00000E+00
 -1       573 1.70151E+01 1.09762E+01 0.00000E+00
 -1       574 2.44645E+01 2.43038E+00 0.00000E+00
 -1       575 4.66039E+01 2.04264E+01 0.00000E+00
 -1       576 4.00000E+01 2.04609E+01 0.00000E+00
 -1       577 4.62729E+01 1.38497E+01 0.00000E+00
 -1       578 1.64711E+01 1.51633E+00 0.00000E+00
 -1       579 1.93954E+01 2.41563E+00 0.00000E+00
 -1       580 1.73743E+01 1.81662E+00 0.00000E+00
 -1       581 7.80874E+00 1.00841E+01 0.00000E+00
 -1       582 2.97818E+01 1.66506E+01 0.00000E+00
 -1       583 1.41669E+01 2.28134E+00 0.00000E+00
 -1       584 8.73056E+00 1.37724E+01 0.00000E+00
 -1       585 1.94070E+01 3.43768E+00 0.00000E+00